Index,Solvent,cname,MW,RHO,CP,HV,MU,BP,GAMMA1,GAMMA2,VP,GAMMAS,S,alpha
1064,CLO2,CHLORINE-DIOXIDE,ERROR,ERROR,ERROR,ERROR,ERROR,ERROR,ERROR,ERROR,ERROR,ERROR,ERROR,ERROR
1065,C7H4F3NO2,3-NITROBENZOTRIFLUORIDE,191.1095,1426.02062,303.324883,60022.0482,2.55941666,202.78,1.94083053,1.06691244,0.034290358,3.58864556,1.819109476,3.387162653
1066,BF3,BORON-TRIFLUORIDE,ERROR,ERROR,ERROR,ERROR,ERROR,ERROR,ERROR,ERROR,ERROR,ERROR,ERROR,ERROR
1067,O3,OZONE,47.9982,477.132856,None,None,None,-111.3,0.783634803,0.950315619,5570,0.924259968,0.824604781,-1.284645011
1068,C7H17N,1-AMINOHEPTANE,115.21872,772.654058,308.852398,49493.5915,1.01806317,156.9,1.04475074,1.13219531,0.445224158,1.29485793,0.922765472,2.74225697
1069,C9H21N-D1,N-NONYLAMINE,143.27248,785.327185,306.149263,56020.9496,1.64271112,202.2,0.888789456,0.9772543,0.043451472,1.03768637,0.909476127,3.785073443
1070,C11H25N,UNDECYLAMINE,171.32624,794.943371,435.230282,69659.1334,2.57239556,241.6,0.776401601,0.863285316,0.004251163,0.821660544,0.899356895,4.842090613
1071,H2SE,HYDROGEN-SELENIDE,ERROR,ERROR,ERROR,ERROR,ERROR,ERROR,ERROR,ERROR,ERROR,ERROR,ERROR,ERROR
1072,C8H16-D5,"2,4,4-TRIMETHYL-2-PENTENE",112.21504,717.564624,239.103137,37331.249,0.289989882,104.91,0.87929023,1.05380963,4.78649994,1.12423621,0.83439191,1.741022996
1073,PH3,PHOSPHINE,ERROR,ERROR,ERROR,ERROR,ERROR,ERROR,ERROR,ERROR,ERROR,ERROR,ERROR,ERROR
1074,SIH4,SILANE,ERROR,ERROR,ERROR,ERROR,ERROR,ERROR,ERROR,ERROR,ERROR,ERROR,ERROR,ERROR
1075,C10H20O,1-DECANAL,156.2682,814.107283,305.57533,59369.1678,1.75260639,208.5,0.813650031,0.771494193,0.017729066,0.632691455,1.054641809,4.286591291
1076,C2CL2F4-1,"1,1-DICHLORO-1,2,2,2-TETRAFLUORO",170.921,1458.0807,None,None,None,3.02,1.08712965,1.00820289,217.969532,1.04006425,1.0782846,0.097228438
1077,C3H7I-D2,N-PROPYL-IODIDE,169.99305,1739.46392,121.914403,35392.2179,0.708474949,102.45,0.845487863,0.513299075,5.74502356,0.55155108,1.647164205,1.658629388
1078,C4H9I,N-BUTYL-IODIDE,184.01993,1604.10231,163.212166,40176.639,0.826606642,130.55,0.789894024,0.520959882,1.83128799,0.510223589,1.516228123,2.19542356
1079,C6H13I,N-HEXYL-IODIDE,212.07369,1431.46295,211.936347,48592.0075,1.28507855,181.35,0.70583402,0.522688207,0.19553426,0.428818379,1.350392089,3.243882909
1080,C5H10O2-6,METHYL-ISOBUTYRATE,102.1332,885.253929,190.78077,37732.1061,0.488547774,92.3,1.1871726,1.05723201,6.69605166,0.938534248,1.122906409,1.675037843
1081,C4H12O4SI,METHYL-SILICATE,152.22238,1024.52182,225.935372,41484.8521,0.59960388,120.12,2.74259927,1.87785043,2.11714555,6.20664021,1.460499317,1.604190171
1082,C7H3CLF3NO2,4-CHLORO-3-NITROBENZOTRIFLUORIDE,225.55426,1506.61476,307.282305,63840.4161,6.02289217,222.58,2.33767648,1.33352998,0.010771807,5.08067153,1.752998819,3.83592955
1083,C8H14O3,BUTYRIC-ANHYDRIDE,158.19736,962.631885,312.281878,58608.8171,1.46860235,197.78,1.23163583,0.966357244,0.038934783,1.0000669,1.274513993,3.843907355
1084,C9H12O-E1,DIMETHYL-PHENYL-CARBINOL,ERROR,ERROR,ERROR,ERROR,ERROR,ERROR,ERROR,ERROR,ERROR,ERROR,ERROR,ERROR
1085,C6H15NO2,DIISOPROPANOLAMINE,133.19064,1005.03495,350.652086,103980.319,1533.61216,2.49E+02,3.33716114,3.6162124,1.69711E-05,87.9189678,0.922833277,5.833598895
1086,C5H13NO2,METHYL-DIETHANOLAMINE,119.16376,1038.13173,237.962102,73835.8785,75.6256505,247.55,4.78577071,5.85628135,0.00099794,170.839982,0.817203004,3.985064617
1087,C8H18N2O2,"1,4-PIPERAZINE-DIETHANOL",ERROR,ERROR,ERROR,ERROR,ERROR,ERROR,ERROR,ERROR,ERROR,ERROR,ERROR,ERROR
1088,C4H11NO-1,2-AMINO-2-METHYL-1-PROPANOL,ERROR,ERROR,ERROR,ERROR,ERROR,ERROR,ERROR,ERROR,ERROR,ERROR,ERROR,ERROR
1089,C5H10N2O,"1,3-DIMETHYL-2-IMIDAZOLIDINONE",ERROR,ERROR,ERROR,ERROR,ERROR,ERROR,ERROR,ERROR,ERROR,ERROR,ERROR,ERROR
1090,C2H2F2,"1,1-DIFLUOROETHYLENE",ERROR,ERROR,ERROR,ERROR,ERROR,ERROR,ERROR,ERROR,ERROR,ERROR,ERROR,ERROR
1091,CH4N2O,UREA,ERROR,ERROR,ERROR,ERROR,ERROR,ERROR,ERROR,ERROR,ERROR,ERROR,ERROR,ERROR
1092,C6H3CL2NO2,"1,2-DICHLORO-4-NITROBENZENE",192.00076,1514.70722,229.446273,69216.6591,7.8667671,255.85,2.08033611,0.678851454,0.001459987,0.978421547,3.064493856,5.126036308
1093,C13H26-2,1-TRIDECENE,182.34944,761.904014,361.739038,62838.4986,1.54395079,232.84,0.679249788,0.790545465,0.008072732,0.667674105,0.859216602,4.61547823
1094,C15H30-2,1-PENTADECENE,210.4032,772.403945,428.892236,73932.7839,2.28163844,268.46,0.621721556,0.727225845,0.000779087,0.544359975,0.85492225,5.68333364
1095,C22H38,N-HEXADECYLBENZENE,302.54372,845.622848,542.845987,99553.6296,8.76649751,3.78E+02,0.514801686,0.584793109,4.7243E-07,0.292988043,0.880314214,9.074951677
1096,CH2CLF,CHLOROFLUOROMETHANE,ERROR,ERROR,ERROR,ERROR,ERROR,ERROR,ERROR,ERROR,ERROR,ERROR,ERROR,ERROR
1097,C2H2F4-D1,"1,1,2,2-TETRAFLUOROETHANE",ERROR,ERROR,ERROR,ERROR,ERROR,ERROR,ERROR,ERROR,ERROR,ERROR,ERROR,ERROR
1098,C17H28,N-UNDECYLBENZENE,232.40932,849.146752,432.746892,85290.0981,4.11587703,3.13E+02,0.634252469,0.706624064,4.59607E-05,0.535344723,0.897581191,6.907304921
1099,C19H32,N-TRIDECYLBENZENE,260.46308,847.673875,466.684405,90377.9159,5.61905926,3.41E+02,0.580363674,0.652422235,7.01844E-06,0.423624233,0.889552261,7.790443549
1100,C6H12-11,4-METHYL-CIS-2-PENTENE,84.16128,664.44716,192.02454,29511.0942,0.259088069,56.38,0.962694739,1.1174567,32.5298272,1.15615581,0.861505183,0.922069042
1101,C2H4F2-D1,"1,2-DIFLUOROETHANE",ERROR,ERROR,ERROR,ERROR,ERROR,ERROR,ERROR,ERROR,ERROR,ERROR,ERROR,ERROR
1102,C6H12-12,4-METHYL-TRANS-2-PENTENE,84.16128,663.927331,199.910244,29992.9585,0.258925158,58.6,0.962694739,1.1174567,29.6947953,1.15615581,0.861505183,0.961670462
1103,C9H20-5,"3,3-DIETHYLPENTANE",128.2578,749.833171,262.685246,42240.008,0.434490809,146.19,0.86289003,1.09265289,0.972436398,1.22675079,0.789720174,2.411001127
1104,C6H12-10,3-METHYL-TRANS-2-PENTENE,84.16128,693.102217,189.275982,32286.3295,0.259094411,70.438,0.970305258,1.15694436,18.612695,1.21733676,0.838679276,1.157228936
1105,C6H12-9,3-METHYL-CIS-2-PENTENE,84.16128,688.57339,177.204861,31401.9407,0.259024819,67.7,0.970305258,1.15694436,20.9466576,1.21733676,0.838679276,1.105923463
1106,C2H3F,VINYL-FLUORIDE,ERROR,ERROR,ERROR,ERROR,ERROR,ERROR,ERROR,ERROR,ERROR,ERROR,ERROR,ERROR
1107,C4H10O2-D7,1-METHOXY-2-PROPANOL,90.1222,917.451792,168.58518,44244.2297,1.67717271,120.1,3.56903785,3.69873851,1.60870847,11.3572183,0.964933812,1.755440767
1108,C10H22O5,TETRAETHYLENE-GLYCOL-DIMETHYL-ET,222.28168,1004.39601,331.95376,73781.2497,3.27423915,275.8,1.42967762,1.20636878,0.000290518,4.3867414,1.185108272,5.425302022
1109,C3H10OSI,TRIMETHYL-SILANOL,ERROR,ERROR,ERROR,ERROR,ERROR,ERROR,ERROR,ERROR,ERROR,ERROR,ERROR,ERROR
1110,C6H19NSI2,HEXAMETHYLDISILAZANE,ERROR,ERROR,ERROR,ERROR,ERROR,ERROR,ERROR,ERROR,ERROR,ERROR,ERROR,ERROR
1111,H3PO4,ORTHOPHOSPHORIC-ACID,ERROR,ERROR,ERROR,ERROR,ERROR,ERROR,ERROR,ERROR,ERROR,ERROR,ERROR,ERROR
1112,CL4GE,GERMANIUM-TETRACHLORIDE,ERROR,ERROR,ERROR,ERROR,ERROR,ERROR,ERROR,ERROR,ERROR,ERROR,ERROR,ERROR
1113,C13H26O2-D2,N-TRIDECANOIC-ACID,214.34824,887.201583,468.0941,105398.085,15.307243,3.12E+02,0.794467772,0.882808369,2.38868E-06,0.75578823,0.899932307,8.138444144
1114,C7H14O3,ETHYL-3-ETHOXYPROPIONATE,146.18636,944.32226,253.179928,51652.9966,1.14448611,168.5,1.08168264,0.921716583,0.192116058,1.16870194,1.173552326,3.06246643
1115,C6H10-E3,"2,3-DIMETHYL-1,3-BUTADIENE",82.1454,724.444856,183.749837,31538.8259,0.260085684,68.78,0.964074283,1.00177771,20.197613,1.01186682,0.96236348,1.139484423
1116,C7H14-E3,"TRANS-1,3-DIMETHYLCYCLOPENTANE",98.18816,744.488388,191.743019,34486.0675,0.494473093,91.73,1.05502232,1.34463498,8.59799582,1.4677533,0.784616149,1.47669057
1117,C4H10S-D3,METHYL-N-PROPYL-SULFIDE,90.1894,837.439225,171.836851,36240.5976,0.435670461,95.54,0.016682897,0.000234309,6.78628797,0.130441753,71.2005571,-1.128124366
1118,C4H10S-D4,METHYL-ISOPROPYL-SULFIDE,90.1894,824.734377,168.394912,34139.9383,0.429835132,84.76,0.01663986,0.000232803,10.719509,0.130506594,71.47605389,-1.329681801
1119,C8H16-9,"1,1,2-TRIMETHYLCYCLOPENTANE",112.21504,768.338797,199.005515,37286.04,0.646167617,113.73,0.97825635,1.24228827,3.72163213,1.38698068,0.787463243,1.830554991
1120,C3H4O3-D1,PYRUVIC-ACID,88.06296,1264.03865,131.068344,51752.1235,2.31481896,165,23.2147281,19.431389,0.169945765,38.8857769,1.194702453,2.91753918
1121,C6H12-15,"3,3-DIMETHYL-1-BUTENE",84.16128,648.347676,185.126722,26578.1841,0.256538679,41.247,0.946359844,1.06552077,57.5064081,1.09339052,0.888166492,0.678206834
1122,C6H12-D1,2-ETHYL-1-BUTENE,84.16128,684.953335,181.938751,31124.9234,0.259052665,64.67,0.953468421,1.09792183,23.3839311,1.13962809,0.868430151,1.064027212
1123,C6H12N4,HEXAMETHYLENETETRAMINE,ERROR,ERROR,ERROR,ERROR,ERROR,ERROR,ERROR,ERROR,ERROR,ERROR,ERROR,ERROR
1124,C8H14,CYCLOOCTENE,110.19916,848.143329,175.733413,41756.952,1.54814205,143,0.95188998,1.09857637,1.01624745,1.16049627,0.866475928,2.418323496
1125,C4H10O2-D9,2-METHOXY-PROPANOL-1,90.1222,933.14669,176.933471,45296.9897,3.11703265,129.5,2.39873523,2.70998178,1.12129949,3.65523571,0.885148102,2.269465819
1126,C4H8O3,METHYL-LACTATE,104.10572,1087.31042,183.247041,49884.8996,2.95346281,144.8,4.04493454,4.03846883,0.444899271,8.90907068,1.00160103,2.457259097
1127,C5H10O3-D2,ETHYL-LACTATE,118.1326,1026.9675,201.94687,51555.4516,2.37346506,154.5,2.83562773,2.78539574,0.270760882,6.28283907,1.018034059,2.663281511
1128,C8H16-10,"1,1,3-TRIMETHYLCYCLOPENTANE",112.21504,743.871172,201.58767,35902.1526,0.646167617,104.89,0.97825635,1.24228827,5.30456665,1.38698068,0.787463243,1.676638523
1129,C3H5CLO2,METHYL-CHLOROACETATE,108.5242,1228.97925,165.611234,46776.7209,1.04361667,129.82,2.35268432,1.53636018,1.00977894,1.44558412,1.531336434,2.471359825
1130,C3H5CL-D0,2-CHLOROPROPENE,76.5254,894.497092,None,None,None,22.65,1.02852649,1.09873421,109.604906,1.09148154,0.936101271,0.412182718
1131,C6H12O2-4,ETHYL-ISOBUTYRATE,116.16008,863.541302,189.493579,39198.5316,0.570648465,109.85,1.03578022,0.937561268,3.37897171,0.822874919,1.104760036,1.977017737
1132,C2H4BR2-D1,"1,1-DIBROMOETHANE",187.86176,2045.86107,125.754506,40233.8379,1.1342805,108,3.05591639,3.75136644,3.40626884,3.81262391,0.814614205,1.90982306
1133,C7H14O2-D7,N-PROPYL-ISOBUTYRATE,130.18696,859.522397,235.722099,46295.0229,0.693953215,135.5,0.927541754,0.852702034,0.88739199,0.72346368,1.087767728,2.572401522
1134,C8H16O2-D2,ISOBUTYL-ISOBUTYRATE,144.21384,850.870258,259.89218,48185.4036,0.813163064,147.3,0.845656367,0.788568443,0.586032825,0.637054472,1.072394381,2.773877342
1135,C9H18O2-N1,ISOPENTYL-BUTANOATE,ERROR,ERROR,ERROR,ERROR,ERROR,ERROR,ERROR,ERROR,ERROR,ERROR,ERROR,ERROR
1136,C10H20O2-D3,ISOPENTYL-ISOVALERATE,172.2676,853.820268,335.079589,58157.9241,1.28854212,194,0.751179163,0.752530436,0.118039056,0.578465859,0.998204361,3.49135707
1137,C7H6CL2-D1,BENZYL-DICHLORIDE,161.03004,1244.98349,151.069294,48553.262,1.65226034,213.85,1.47081657,1.30486148,0.068223881,1.90349039,1.127182151,3.451213761
1138,C8H8O2-D3,BENZYL-FORMATE,136.15032,1077.94282,188.063594,55755.2104,1.57766524,203,1.98921848,1.43915385,0.041222254,2.44854318,1.382213917,3.603204186
1139,C10H12O2,N-PROPYL-BENZOATE,164.20408,1018.08581,262.168113,61523.2475,2.86322968,231,1.18135835,1.03146402,0.011533884,1.0391504,1.145321918,4.38393654
1140,C10H18O-D1,ALPHA-TERPINEOL,154.25232,935.456878,290.554649,63748.1267,38.1995492,219.8,1.13031076,1.25356719,0.008575213,1.87616914,0.90167545,4.340767195
1141,C10H16-E5,GAMMA-TERPINENE,136.23704,844.825249,260.957036,50519.743,0.745909423,183,0.824072942,0.929369679,0.141839175,0.91070142,0.886700912,3.306152749
1142,C10H14O-D2,THYMOL,150.22056,971.059775,247.111377,64417.1063,5.96575633,232.5,1.04999926,0.859048359,0.00494116,0.842006557,1.222281899,4.764009724
1143,C6H4BR2-D1,"1,4-DIBROMOBENZENE",235.90576,1935.92003,158.860321,53453.043,4.0022696,220.4,3.52020385,3.53400843,0.035597101,7.39030005,0.99609379,3.577327342
1144,C5H8-7,"3-METHYL-1,2-BUTADIENE",ERROR,ERROR,ERROR,ERROR,ERROR,ERROR,ERROR,ERROR,ERROR,ERROR,ERROR,ERROR
1145,C5H8O-D1,METHYL-ISOPROPENYL-KETONE,84.11792,846.245188,150.575516,36851.5157,0.397153333,98,1.71501487,1.32982681,5.89457848,1.53027588,1.289652801,1.617709057
1146,C6H3CL3-D1,"1,3,5-TRICHLOROBENZENE",181.44792,1430.44029,150.278308,48919.5701,1.41476067,208.4,2.0583543,2.34846819,0.070695211,4.29492175,0.876466758,3.337575891
1147,C10H12O,ANETHOLE,148.20468,983.816224,231.517644,62063.0352,2.50338318,235.3,1.24512324,1.14712528,0.00744286,1.56010168,1.08542917,4.443854558
1148,C5H12O2-D3,ETHYLENE-GLYCOL-MONOPROPYL-ETHER,104.14908,907.019012,206.66692,52115.2708,2.66423785,151.35,2.36297873,2.64396177,0.309494634,4.46685771,0.893726512,2.730736389
1149,C4H6O5-D1,MALIC-ACID,134.08864,1322.04402,317.883124,137560.837,15.9698259,3.29E+02,40.1415912,75.1464932,1.05268E-08,971.973496,0.534177837,9.315093683
1150,C7H6O2-E1,P-HYDROXY-BENZALDEHYDE,122.12344,1218.94683,164.994537,72776.5556,31.4942583,310,7.00082415,3.99158888,0.00013951,20.7087883,1.753894091,5.589521537
1151,C4H6CL2-E1,"(Z)-1,3-DICHLORO-2-BUTENE",124.99704,1152.67722,191.972513,43694.0554,0.8882252,128,1.01936564,0.894175931,1.51481945,0.886815578,1.14000568,2.27236525
1152,SIF4,SILICON-TETRAFLUORIDE,ERROR,ERROR,ERROR,ERROR,ERROR,ERROR,ERROR,ERROR,ERROR,ERROR,ERROR,ERROR
1153,C2H2F4,"1,1,1,2-TETRAFLUOROETHANE",102.03148,1204.99639,None,None,None,-26.07,5.32297559,9.85418915,664.962329,21.9989385,0.54017388,-0.722441414
1154,C10H22-2,"3,3,5-TRIMETHYLHEPTANE",142.28468,738.997863,297.520773,45569.6558,0.890583629,155.68,0.817727209,1.03152135,0.557110925,1.13839242,0.792739005,2.660381011
1155,C22H44O2,N-BUTYL-STEARATE,340.59016,853.6933,660.52393,105193.349,7.25755355,3.50E+02,0.442659827,0.48481391,7.92503E-07,0.12646077,0.913051003,9.133754968
1156,C4H7NO-D1,ACETONE-CYANOHYDRIN,ERROR,ERROR,ERROR,ERROR,ERROR,ERROR,ERROR,ERROR,ERROR,ERROR,ERROR,ERROR
1157,C2H3NO-E1,HYDROXYACETONITRILE,57.05196,1091.38576,152.8753,71550.0918,8.69409546,193.85,17.2324999,12.9011656,0.007238201,65.3207779,1.335732013,3.885083394
1158,B2H6,DIBORANE,ERROR,ERROR,ERROR,ERROR,ERROR,ERROR,ERROR,ERROR,ERROR,ERROR,ERROR,ERROR
1159,BCL3,BORON-TRICHLORIDE,ERROR,ERROR,ERROR,ERROR,ERROR,ERROR,ERROR,ERROR,ERROR,ERROR,ERROR,ERROR
1160,CLF3,CHLORINE-TRIFLUORIDE,ERROR,ERROR,ERROR,ERROR,ERROR,ERROR,ERROR,ERROR,ERROR,ERROR,ERROR,ERROR
1161,ALCL3,ALUMINIUM-CHLORIDE,ERROR,ERROR,ERROR,ERROR,ERROR,ERROR,ERROR,ERROR,ERROR,ERROR,ERROR,ERROR
1162,ASH3,ARSINE,ERROR,ERROR,ERROR,ERROR,ERROR,ERROR,ERROR,ERROR,ERROR,ERROR,ERROR,ERROR
1163,ASCL3,ARSENIC-CHLORIDE,ERROR,ERROR,ERROR,ERROR,ERROR,ERROR,ERROR,ERROR,ERROR,ERROR,ERROR,ERROR
1164,C6H10S,DIALLYL-SULFIDE,114.2114,897.501548,202.044096,41947.6184,0.438377056,139,1.01442326,0.749379544,1.27700133,0.689383724,1.353684215,2.379185919
1165,C8H16-12,"CIS,TRANS,CIS-1,2,4-TRIMETHYLCYC",112.21504,707.397717,212.309106,38052.8233,0.675146671,109.25,0.998091014,1.26425343,4.35856273,1.41873652,0.789470679,1.759725552
1166,C7H16O-E2,ETHYL-TERT-PENTYL-ETHER,116.20344,761.471987,220.7565,36468.7642,0.458916458,101.42,1.00858199,1.15790366,5.44507116,1.26664029,0.87104137,1.674152029
1167,C10H18O-D2,BETA-TERPINEOL,ERROR,ERROR,ERROR,ERROR,ERROR,ERROR,ERROR,ERROR,ERROR,ERROR,ERROR,ERROR
1168,C10H22S-D2,DIISOPENTYLSULFIDE,174.35068,829.945923,316.164773,59665.1697,1.39858701,215.3,0.096360256,0.013937825,0.018602917,0.131844596,6.913579028,3.203688101
1169,CH2CLNO,CARBAMYL-CHLORIDE,ERROR,ERROR,ERROR,ERROR,ERROR,ERROR,ERROR,ERROR,ERROR,ERROR,ERROR,ERROR
1170,C3H7N,ALLYLAMINE,57.09532,756.865933,142.808854,32522.448,0.371379432,53.3,1.8313556,1.60480665,32.2775315,1.84654395,1.141169,0.879299213
1171,C5H8O3-D1,LEVULINIC-ACID,116.11672,1144.54477,273.20224,82876.6203,4.41939572,256.85,5.6516334,4.92132046,0.000287589,13.7041309,1.148397762,5.545594024
1172,C4H6O3-N1,3-HYDROXYBUTYROLACTONE,102.08984,1241.27085,162.290527,80702.049,3.51929515,2.97E+02,6.74985568,6.98860832,7.08302E-05,12.6135083,0.965836884,6.342472837
1173,C2H3CL2F,"1,1-DICHLORO-1-FLUOROETHANE",116.94962,1232.6451,139.390793,26458.8966,0.406941583,32,0.981946242,1.03848869,78.5991861,1.05409238,0.94555314,0.547241509
1174,C6H14O-D5,3-METHYL-1-PENTANOL,102.17656,827.073297,335.729348,64105.9352,4.72281104,152.4,1.76069887,2.1115237,0.128461779,3.77574782,0.833852289,3.087955508
1175,C6H8N2-D3,O-PHENYLENEDIAMINE,108.143,1147.52453,189.406079,69948.5874,17.9544499,257,13.8179287,11.5476581,0.001328783,91.714384,1.196600088,4.4257387
1176,C6H15NO-D1,DIETHYLETHANOLAMINE,117.19124,882.048494,235.1423,51381.714,4.04201198,163,1.91648605,2.24146086,0.219660476,6.50714236,0.855016514,2.644525391
1177,C8H19N-D1,DIISOBUTYLAMINE,129.2456,743.411569,235.581189,43031.8092,0.724124007,139.1,0.821172158,0.866323837,0.968634255,0.789600779,0.947881292,2.503249333
1178,C6F5OH,PENTAFLUOROPHENOL,184.06534,1684.99706,242.585993,51214.0568,4.23950724,145.64,3.71886435,2.85816372,0.423378607,27.112341,1.301137623,1.845327635
1179,C12H18-D7,HEXAMETHYLBENZENE,162.27492,937.358819,313.636374,67925.4249,3.79201862,263.45,0.596730776,0.512044724,0.003138358,0.171759999,1.165387998,5.426819874
1180,C14H12-D2,TRANS-STILBENE,180.24928,1027.38297,243.184858,72047.9534,5.12329963,306.5,1.16168258,1.09824855,0.0002573,1.47230634,1.057759266,5.911398708
1181,C4H2N2-D1,FUMARONITRILE,ERROR,ERROR,ERROR,ERROR,ERROR,ERROR,ERROR,ERROR,ERROR,ERROR,ERROR,ERROR
1182,C4H2N2-D2,MALEONITRILE,ERROR,ERROR,ERROR,ERROR,ERROR,ERROR,ERROR,ERROR,ERROR,ERROR,ERROR,ERROR
1183,C20H12-N3,BENZO[E]FLUORANTHENE,ERROR,ERROR,ERROR,ERROR,ERROR,ERROR,ERROR,ERROR,ERROR,ERROR,ERROR,ERROR
1184,C10H16-D5,ADAMANTANE,136.23704,945.257147,222.678922,49327.733,0.381786306,187.85,1.18361609,1.46163624,0.536044562,1.86648369,0.809788412,2.613750669
1185,C8H10O-D6,M-TOLUALCOHOL,122.1668,916.068383,253.436425,72657.2935,5.04090975,217,1.89198431,1.66128955,0.003750325,3.6349581,1.138864872,4.535013528
1186,C8H10O-D2,P-TOLUALCOHOL,122.1668,1026.82014,220.54123,66702.2616,5.98206511,217,1.89198431,1.66128955,0.007470312,3.6349581,1.138864872,4.23574367
1187,C8H8O-D2,O-TOLUALDEHYDE,120.15092,1031.71001,167.73265,52038.0175,2.22138488,201,2.06203863,1.37310492,0.063368358,2.12125876,1.501734208,3.458374082
1188,C6H8O,2-CYCLOHEXENE-1-ONE,96.12892,987.023425,157.931263,47910.6675,0.840607924,172,1.53661902,1.23267589,0.243116844,1.31676592,1.246571814,3.034661735
1189,C6H10O-D2,5-HEXEN-2-ONE,98.1448,839.07913,178.234848,42000.1451,0.525924614,128.5,1.48609694,1.16821985,1.54303686,1.3092053,1.272103825,2.211276986
1190,C8H8O2-D1,O-TOLUIC-ACID,136.15032,1144.48897,201.758512,75934.7485,5.68382338,258.85,2.48158315,2.03937555,0.000648879,3.27423309,1.216834805,5.431360153
1191,C8H8O2-M,M-TOLUIC-ACID,136.15032,1134.14977,227.810445,85561.9289,11.3644929,263,2.48158315,2.03937555,0.000192124,3.27423309,1.216834805,5.95994265
1192,C8H8O2-D2,P-TOLUIC-ACID,136.15032,1224.69751,265.342239,92266.5961,7.76122025,274.5,2.48158315,2.03937555,0.000451998,3.27423309,1.216834805,5.588388039
1193,C9H8O2,CINNAMIC-ACID,148.16132,1171.08702,373.529759,113407.141,42.045153,3.00E+02,2.32051473,2.02931341,6.10435E-06,3.28912392,1.14349746,7.453766117
1194,C18H30O2,LINOLENIC-ACID,278.435,912.468773,527.306386,115449.154,15.2915503,3.59E+02,0.590655609,0.594495779,7.16485E-08,0.270115675,0.993540459,9.936528217
1195,C18H32O2,LINOLEIC-ACID,280.45088,899.610254,529.446329,112665.57,19.0543057,3.55E+02,0.585442878,0.60997853,1.14481E-07,0.288238887,0.959776204,9.715964552
1196,C20H40O2,N-EICOSANIC-ACID,312.5364,872.152584,685.026682,141149.077,43.3458459,3.95E+02,0.533513226,0.594746937,1.38215E-09,0.261671008,0.89704241,11.66515897
1197,C7H12O2-D2,ISOBUTYL-ACRYLATE,128.17108,885.005184,233.120072,44884.8903,0.763022135,136.85,1.00518125,0.863486012,0.942340804,0.744994609,1.164096738,2.53903064
1198,C6H10O2-D2,ETHYL-METHACRYLATE,114.1442,907.278797,199.407069,40344.3635,0.527103435,117,1.10333471,0.942376065,2.71196642,0.85645578,1.170800863,2.057371455