Index,Solvent,cname,MW,RHO,CP,HV,MU,BP,GAMMA1,GAMMA2,VP,GAMMAS,S,alpha
270,C10H10O4-D3,DIMETHYL-ISOPHTHALATE,194.187,1190.8608,289.573926,73959.8914,13.6026015,285.07,1.77996691,1.38822046,0.000336441,1.50461105,1.282193255,5.88726155
271,C4H8O-1,N-BUTYRALDEHYDE,72.10692,797.679789,145.284542,33427.9641,0.407850788,74.79,1.45966333,1.07732649,15.1632109,1.42049941,1.354894123,1.148251566
272,C5H6,CYCLOPENTADIENE,66.10264,796.686926,88.9796087,26045.7646,0.310673087,41.5,1.11995984,1.08637177,57.747441,1.08807005,1.030917657,0.686925332
273,C10H18-1,CIS-DECALIN,138.25292,893.870178,220.063412,50387.824,3.04312361,195.815,0.994607865,1.24186776,0.104571602,1.47678343,0.80089676,3.354481241
274,C4H10-2,ISOBUTANE,58.1234,551.142784,None,None,None,-11.72,1.09957724,1.4490086,351.241528,1.42357445,0.758847974,-0.088778619
275,C7H12O2-D1,N-BUTYL-ACRYLATE,128.17108,895.447204,263.611086,48632.2889,0.859211311,147.4,1.00449684,0.863134129,0.726770714,0.744521458,1.163778382,2.651940112
276,C5H8O2,ETHYL-ACRYLATE,100.11732,915.67428,161.844162,38447.3324,0.541457622,99.5,1.31409494,1.060081,5.00346805,1.0120775,1.239617482,1.76999061
277,C2HBRCLF3,HALOTHANE,ERROR,ERROR,ERROR,ERROR,ERROR,ERROR,ERROR,ERROR,ERROR,ERROR,ERROR,ERROR
278,C2H7N-1,ETHYL-AMINE,45.08432,677.511894,None,None,None,16.58,2.00853651,2.03820651,139.698689,2.07541002,0.985443084,0.296088405
279,C2H5CL,ETHYL-CHLORIDE,64.5144,887.342909,None,None,None,12.3,1.01589177,0.878005333,160.026987,0.909119952,1.157045102,0.229819197
280,C8H10-1,O-XYLENE,106.1674,879.010232,189.341927,43590.1762,0.757730895,144.43,0.959101406,0.883168335,0.886179431,0.880488086,1.085978027,2.5029348
281,C8H16O3,EG-MONOBUTYL-ETHER-ACETATE,160.21324,935.609738,310.199051,51923.1185,1.62788207,192,1.04096213,0.87131577,0.115716641,1.06700707,1.194701354,3.297748919
282,C5H10O2-1,N-VALERIC-ACID,102.1332,945.619427,181.983249,51168.1803,2.01230172,185.8,2.1863498,2.57444773,0.0276104,2.74658071,0.849250025,3.979955478
283,C7H9N-5,METHYLPHENYLAMINE,107.1552,980.703483,183.049744,54156.0357,1.97431267,195.87,1.90629481,1.47920199,0.059762592,1.93253753,1.288731913,3.556606584
284,C3H5N,PROPIONITRILE,55.07944,779.673761,121.253227,36445.8455,0.407863333,97.1,2.56437738,1.84289892,6.33724046,2.4784914,1.391491065,1.518550373
285,C4H5CL,CHLOROPRENE,88.5364,952.398776,140.698558,29397.1904,0.479037138,59.4,1.07226534,0.998752526,29.7441322,0.99870941,1.073604634,0.975753906
286,C9H18-3,1-NONENE,126.24192,726.240576,249.585459,44229.6499,0.586721426,146.868,0.823810696,0.944046194,0.755444374,0.937340807,0.87263812,2.57402969
287,C3H7CL-2,ISOPROPYL-CHLORIDE,78.54128,856.103214,136.810535,27153.7254,0.306801408,35.7,0.967920686,0.9813798,68.7343072,0.977858725,0.98628552,0.6135239
288,C3H5CL,ALLYL-CHLORIDE,76.5254,930.907512,124.055052,30204.1223,0.317261014,45.15,1.30932626,1.00099179,48.7895665,1.00082481,1.30802897,0.760881954
289,C4H4O,FURAN,ERROR,ERROR,ERROR,ERROR,ERROR,ERROR,ERROR,ERROR,ERROR,ERROR,ERROR,ERROR
290,C3H7CL-1,PROPYL-CHLORIDE,78.54128,884.83715,136.734522,28854.2196,0.337366514,46.52,0.98486581,0.913989193,45.9813384,0.918132983,1.07754645,0.784590323
291,C8H10O-D1,ALPHA-METHYLBENZYL-ALCOHOL,122.1668,1009.29955,215.092343,61883.7997,8.74640371,204,2.09119644,2.08030902,0.020004395,4.62387713,1.005233559,3.801132602
292,C8H19N,DIBUTYLAMINE,129.2456,758.397824,264.868904,49482.5986,0.90869379,158.85,0.82038445,0.865817619,0.365038828,0.788718032,0.947525705,2.927302048
293,C5H12O-6,ETHYL-PROPYL-ETHER,88.14968,720.658786,226.876637,31390.267,0.301044544,63.86,1.08559008,1.23082633,24.0693486,1.32803116,0.882001021,1.034660636
294,C6H14O-D1,DI-N-PROPYL-ETHER,102.17656,742.509699,217.038157,35653.8299,0.396634575,90.08,1.01234409,1.15846262,8.29948536,1.25944407,0.873868585,1.493788436
295,C6H14O-2,ETHYL-BUTYL-ETHER,102.17656,744.865737,225.692133,36313.6398,0.433614815,92.2,1.01234409,1.15846262,7.36678321,1.25944407,0.873868585,1.54556171
296,C19H34O2,METHYL-LINOLEATE,294.47776,884.417179,522.712371,93988.0549,4.38321929,3.46E+02,0.502757293,0.507997262,2.65606E-06,0.160069612,0.989685045,8.526451715
297,C7H16O,1-HEPTANOL,116.20344,820.61313,309.209416,69632.6234,5.80920254,175.45,1.51380985,1.79375092,0.029439733,3.12785417,0.843935372,3.738718239
298,C8H18O-1,1-OCTANOL,130.23032,824.481759,320.293954,72301.2928,7.34741922,193.95,1.32975961,1.56122901,0.011128112,2.60418761,0.851738984,4.180509316
299,C10H22O,1-DECANOL,158.28408,827.016492,370.132096,80759.018,11.3277787,229.85,1.07233253,1.24279025,0.001286791,1.82397363,0.862842728,5.173007839
300,C12H24O2,N-DODECANOIC-ACID,200.32136,887.676151,425.92651,98643.0338,15.1810195,2.99E+02,0.857599248,0.953758054,7.84092E-06,0.88084069,0.899179036,7.589310161
301,C14H28O2,N-TETRADECANOIC-ACID,228.37512,886.125842,491.441213,110797.592,22.0351952,3.26E+02,0.740782984,0.822893864,8.11842E-07,0.64895052,0.900216925,8.642797112
302,C13H26O2,METHYL-DODECANOATE,214.34824,865.194927,419.412441,75482.7326,2.75808916,266.85,0.635444654,0.658928701,0.000655427,0.404432561,0.964360261,5.844604576
303,C19H38O2-N1,METHYL-STEARATE,298.50952,859.660077,559.169328,98145.1388,6.86422021,3.51E+02,0.491666788,0.531301285,1.39658E-06,0.188682923,0.92540109,8.753679758
304,C3H6O2-D2,"2,3-EPOXY-1-PROPANOL",74.07944,1108.6915,127.692123,52740.1311,3.7666986,160.5,8.75816771,8.59901568,0.177393556,27.680761,1.018508168,2.692469336
305,C9H12-2,ISOPROPYLBENZENE,120.19428,857.764298,214.260471,45262.3391,0.737463561,152.41,1.03340662,1.10338648,0.608612416,1.24632667,0.9365772,2.611891422
306,C10H20-5,1-DECENE,140.2688,737.939849,276.268936,48720.8123,0.763768245,170.6,0.783844125,0.902607837,0.243245629,0.87078075,0.868421581,3.078681696
307,C5H10-7,3-METHYL-1-BUTENE,70.1344,621.779666,None,None,None,20.055,0.984463008,1.09124136,120.32967,1.10526967,0.902149647,0.3632163
308,C5H8-3,1-TRANS-3-PENTADIENE,68.11852,671.017213,154.889919,27647.1413,0.195614826,42.02,1.01448747,1.00282103,54.8228888,1.00345146,1.011633621,0.709901608
309,C6H12-8,2-METHYL-2-PENTENE,84.16128,681.794876,182.067509,31615.6107,0.259036549,67.3,0.970305258,1.15694436,21.0303181,1.21733676,0.838679276,1.104192355
310,C6H12O-E1,ETHYL-ISOPROPYL-KETONE,100.16068,806.496292,192.341706,40254.4364,0.542501287,113.4,1.14059134,1.03472398,2.73284683,1.03816278,1.10231459,2.011080229
311,C7H16O-D3,2-METHYL-1-HEXANOL,116.20344,822.795979,264.153357,60090.1257,5.59368789,164,1.51465407,1.79479371,0.085980913,3.12851198,0.84391541,3.273411124
312,C4H6-4,"1,3-BUTADIENE",54.09164,615.594675,None,None,None,-4.41,None,None,281.27845,None,ERROR,ERROR
313,C4H4,VINYLACETYLENE,52.07576,677.170702,None,None,None,5.1,1.3101734,1.13723055,207.077066,1.13103045,1.152073693,0.135378678
314,C6H14-5,"2,3-DIMETHYL-BUTANE",86.17716,657.797611,189.188158,29184.9501,0.362159968,57.98,1.02099078,1.3140267,31.3109704,1.42570186,0.776993938,0.918015406
315,C4H8-1,1-BUTENE,56.10752,586.981936,None,None,None,-6.24,None,None,302.603661,None,ERROR,ERROR
316,C9H12-1,N-PROPYLBENZENE,120.19428,859.583288,213.318044,46094.3224,0.802311899,159.241,1.01140387,1.04560968,0.463900089,1.16380456,0.967286254,2.736201545
317,C6H14-4,"2,2-DIMETHYL-BUTANE",86.17716,644.329222,194.669764,27654.89,0.347842818,49.73,1.01678924,1.31045719,42.73832,1.43510578,0.775904202,0.778857938
318,C6H12O2-3,ETHYL-BUTYRATE,116.16008,874.668472,214.917595,42573.013,0.627214728,121.5,1.02699888,0.950822886,2.23104539,0.904035394,1.080115861,2.122542247
319,C8H8O,METHYL-PHENYL-KETONE,120.15092,1022.9192,168.681552,54484.0723,1.64125572,202.11,1.96214808,1.61320073,0.052758984,2.58173484,1.216307459,3.522616815
320,C6H12O2-2,ISOBUTYL-ACETATE,116.16008,868.99983,204.219323,41238.326,0.660345686,116.65,1.13154585,0.987517831,2.37910061,0.946444065,1.145848525,2.091173646
321,C4H2O3,MALEIC-ANHYDRIDE,ERROR,ERROR,ERROR,ERROR,ERROR,ERROR,ERROR,ERROR,ERROR,ERROR,ERROR,ERROR
322,C2H3NO,METHYL-ISOCYANATE,ERROR,ERROR,ERROR,ERROR,ERROR,ERROR,ERROR,ERROR,ERROR,ERROR,ERROR,ERROR
323,C3H9N-2,ISOPROPYL-AMINE,59.1112,683.999694,166.169809,28435.303,0.324997212,31.77,1.40178258,1.51705348,77.8923103,1.55734232,0.924016588,0.54625868
324,C3H9N-1,N-PROPYL-AMINE,59.1112,714.284351,144.622785,30922.1322,0.37724594,47.85,1.6791066,1.73556472,41.3371945,1.91429383,0.967469885,0.790227676
325,C8H18O-3,2-ETHYLHEXANOL,130.23032,817.353727,343.953814,69176.8079,6.31995114,184.45,1.33045606,1.56205893,0.022354402,2.6049568,0.851732309,3.877670294
326,C5H10O2-D2,ISOPROPYL-ACETATE,102.1332,868.857221,178.863568,36758.3095,0.492970959,88.5,1.31544286,1.10457321,8.05395818,1.09188032,1.190905997,1.548146557
327,C7H14-1,CYCLOHEPTANE,98.18816,806.205957,185.499971,38556.8351,1.40481441,118.79,1.05275481,1.34205624,2.91118021,1.46460172,0.784434198,1.947118546
328,C8H16-D6,CYCLOOCTANE,112.21504,830.920491,203.84334,43605.7185,2.24654628,151.14,0.995233615,1.26102216,0.752368575,1.41405982,0.789227697,2.522960749
329,C3H10N2,"1,2-PROPANEDIAMINE",74.12588,858.370381,183.074413,45784.091,1.57340759,119.3,2.51913488,2.37376694,1.49460345,4.05601611,1.061239348,2.041948886
330,C10H14-9,"1,2,4,5-TETRAMETHYLBENZENE",134.22116,891.328134,238.466533,52746.3295,1.1628189,196.84,0.732591646,0.644835809,0.080745409,0.40584842,1.136090204,3.743103908
331,C13H28,N-TRIDECANE,184.36532,750.934613,405.17775,66459.7244,1.68524634,235.466,0.706583501,0.883239051,0.005689903,0.877830506,0.799991237,4.696699207
332,C10H14-7,1-METHYL-4-ISOPROPYLBENZENE,134.22116,852.087709,237.313851,49863.4044,0.792142732,177.13,0.890094133,0.897888933,0.199402615,0.912466779,0.991318748,3.142411168
333,C3H5CL3,"1,2,3-TRICHLOROPROPANE",147.4308,1381.86109,156.018549,45653.4254,2.23286294,156.85,1.57351881,0.938875614,0.488910246,0.919750452,1.67596089,2.76884537
334,C2H6SICL2,DIMETHYLDICHLOROSILANE,ERROR,ERROR,ERROR,ERROR,ERROR,ERROR,ERROR,ERROR,ERROR,ERROR,ERROR,ERROR
335,C4H11NO,DIMETHYLETHANOLAMINE,89.13748,881.915406,214.921849,54841.223,2.46997013,134,3.2105268,3.7634698,0.423212934,14.792994,0.853076276,2.228109883
336,C8H14O2,N-BUTYL-METHACRYLATE,142.19796,890.870709,240.074217,49448.119,0.938358329,163,0.888755459,0.794625203,0.276727954,0.638869289,1.118458684,3.101833752
337,C12H18-D2,P-DIISOPROPYLBENZENE,162.27492,852.891684,278.193937,56695.4884,0.793085873,210.5,0.820023641,0.892429061,0.032808959,0.907291295,0.91886703,3.925970971
338,C9H20-1,N-NONANE,128.2578,716.613402,281.844265,46519.8053,0.659979107,150.82,0.8685223,1.0984303,0.580362899,1.22986135,0.790694048,2.63635317
339,C3H6O-3,N-PROPIONALDEHYDE,58.08004,791.494683,130.54479,30243.2395,0.305294487,49,1.74545637,1.14249626,40.5333836,1.64929705,1.527756747,0.681879506
340,C4H8O2-5,METHYL-PROPIONATE,88.10632,912.124704,175.985003,36092.4055,0.433930068,79.45,1.33309013,1.14745247,11.3550233,1.12635777,1.16178244,1.402006776
341,C8H16-8,ETHYLCYCLOHEXANE,112.21504,784.851738,214.715953,40533.3553,0.785669534,131.795,0.996177166,1.26208904,1.70947621,1.41559852,0.789308151,2.166423294
342,C8H18O3,DIETHYLENE-GLYCOL-MONOBUTYL-ETHE,162.22912,950.303435,315.508973,69487.0672,5.08123005,231,1.48769754,1.59496638,0.002762805,3.55384741,0.932745391,4.659838961
343,C9H18O2-N4,METHYL-CAPRYLATE,ERROR,ERROR,ERROR,ERROR,ERROR,ERROR,ERROR,ERROR,ERROR,ERROR,ERROR,ERROR
344,C11H22O2-D2,METHYL-DECANOATE,186.29448,868.007035,348.289166,66058.4163,1.94883198,231.85,0.70710045,0.717843331,0.005664461,0.514145341,0.985034505,4.840921618
345,C6H5SICL3,PHENYLTRICHLOROSILANE,ERROR,ERROR,ERROR,ERROR,ERROR,ERROR,ERROR,ERROR,ERROR,ERROR,ERROR,ERROR
346,C6H14O3-D2,DIPROPYLENE-GLYCOL,134.17536,1017.87809,336.578405,92333.4812,84.012018,231.8,3.5998413,4.13265206,0.00424637,57.3148668,0.871072921,3.679080149
347,C16H12,1-PHENYLNAPHTHALENE,204.27128,1089.35174,277.700111,79582.4436,4.57564501,3.34E+02,1.37848396,1.30716664,3.86339E-05,2.41505618,1.054558706,6.595571855
348,C7H14O2-D5,N-PENTYL-ACETATE,130.18696,871.691967,269.892433,48400.8958,0.85019235,148,1.003528,0.90349512,0.56313793,0.825422565,1.110717676,2.737771154
349,C9H18O-D1,DIISOBUTYL-KETONE,142.24132,802.590549,293.300925,50931.9469,0.866777378,168.26,0.859251089,0.821295328,0.224377313,0.720239978,1.04621451,3.155179646
350,C4H8O2-6,N-PROPYL-FORMATE,88.10632,903.24345,180.496684,36110.6594,0.48694506,80.82,1.64296917,1.32504878,10.9829346,1.66972371,1.239931084,1.308005315
351,C3H8S,METHYL-ETHYL-SULFIDE,76.16252,836.822868,149.778272,31911.6575,0.352819387,66.65,0.020724465,0.000373262,21.3331667,0.214982155,55.52263146,-1.640307988
352,C4H10S,DIETHYL-SULFIDE,90.1894,833.86481,167.577691,35623.2007,0.422488428,92.102,0.031216992,0.000938761,8.01876006,0.207327733,33.25338809,-0.799073
353,C6H16N2,HEXAMETHYLENEDIAMINE,116.20652,859.545943,209.195401,51471.2296,2.57407951,199.85,1.59400421,1.55073297,0.060545578,2.9236006,1.027903734,3.391673007
354,C8H16O2-D1,N-BUTYL-N-BUTYRATE,144.21384,865.488933,274.451426,49658.516,0.944508741,165,0.861092285,0.835231934,0.273600535,0.725481127,1.03096188,3.07320049
355,C6H8N2-D1,ADIPONITRILE,108.143,962.478218,183.130011,69972.1781,5.9035728,295,2.9880845,1.91932754,0.000345875,6.85873522,1.556839277,5.357122869
356,C7H6O2,BENZOIC-ACID,122.12344,1177.21653,174.65597,76411.6738,12.6795938,249.25,4.36128599,3.9955,0.000777912,5.69226554,1.091549491,5.404491875
357,C6H18OSI2,HEXAMETHYLDISILOXANE,162.37932,759.487992,277.203437,36056.8275,0.483003674,100.52,1.02641979,1.28434623,5.73059452,14.5082584,0.799176862,0.638003613
358,C5H10O-3,METHYL-ISOPROPYL-KETONE,86.1338,799.294389,187.955424,36909.2754,0.534278725,94.334,1.53720639,1.28621782,6.73617908,1.37962979,1.195136909,1.590274795
359,C6H12O2-5,N-PROPYL-PROPIONATE,116.16008,877.203078,207.175928,42237.1639,0.640470436,122.5,1.02699888,0.950822886,1.86364991,0.904035394,1.080115861,2.20068632
360,C9H7N-D2,QUINOLINE,129.16132,1084.2893,193.074096,59311.244,3.352085,237.16,2.33437522,2.49508816,0.011134641,6.33115365,0.935588272,3.998063279
361,C3H4O-D0,PROPARGYL-ALCOHOL,56.06416,944.648078,110.257153,42785.6075,1.48565223,113.5,3.83694973,3.61009957,2.22827147,9.45517851,1.062837646,1.683017808
362,C12H16,CYCLOHEXYLBENZENE,160.25904,938.464634,238.33717,61956.9498,2.3983292,240.12,0.958281518,1.03565318,0.006758448,1.21363688,0.925291919,4.550415042
363,C3H5CLO,ALPHA-EPICHLOROHYDRIN,92.5248,1173.91774,155.185495,41964.2767,1.0734388,118.5,1.80313705,1.12952854,2.26660348,1.88167172,1.596362541,1.87211426
364,C6H14O4,TRIETHYLENE-GLYCOL,150.17476,1141.71092,294.928697,89730.2564,37.4215241,2.88E+02,4.12899137,4.32018589,3.46582E-05,103.266849,0.955743914,5.530871951
365,CCLF3,CHLOROTRIFLUOROMETHANE,104.4589,839.902915,None,None,None,-81.41,1.03581094,1.03786373,3553.85671,1.03069587,0.998022101,-1.098553654
366,C6H11CL,CYCLOHEXYL-CHLORIDE,118.60604,992.006822,174.869928,42803.2463,1.52583646,142.9,0.953234,1.00397963,1.17890157,0.999336739,0.949455518,2.379671962
367,C5H12O3,2-2-METHOXYETHOXY-ETHANOL,120.14848,1008.48719,222.817593,59495.2019,3.4357183,193.6,3.34995791,3.16220693,0.03605462,15.7000882,1.059373401,3.19626373
368,C4H8-3,TRANS-2-BUTENE,56.10752,599.494579,None,None,None,0.88,1.00579625,1.1512259,234.27684,1.14358628,0.873674098,0.082298718
369,C3H6O3-D3,DIMETHYL-CARBONATE,90.07884,1063.31386,144.376835,37138.2605,0.581599762,90.25,4.23043943,2.59473213,7.37812787,4.4998837,1.630395439,1.342081523
370,C4H8O2-D7,METHOXYACETONE,88.10632,951.924924,140.353732,39451.3151,0.535580621,114.5,3.59297331,2.47789842,2.69123166,4.55401366,1.450008314,1.754874547
371,C9H18O-E2,5-NONANONE,142.24132,818.035312,292.879684,55130.9208,1.15638179,188.45,0.858290886,0.82068046,0.079289911,0.719272205,1.045828343,3.607199344
372,C6H14O3-D3,2-2-ETHOXYETHOXY-ETHANOL,134.17536,977.792638,250.292337,62367.655,3.9456005,201.9,2.27965261,2.28580876,0.020401043,8.41049216,0.997306796,3.573702571
373,C4H8-5,ISOBUTYLENE,56.10752,588.476984,None,None,None,-6.9,1.01728164,1.15208612,303.536555,1.15465336,0.882990969,-0.03404122
374,C4H8O-2,ISOBUTYRALDEHYDE,72.10692,793.68137,159.657252,32668.5967,0.634526678,64.01,1.46093319,1.07735574,22.5873605,1.42130046,1.35603602,0.97494421
375,C4H8-2,CIS-2-BUTENE,56.10752,617.154628,None,None,None,3.72,1.00579625,1.1512259,214.30093,1.14358628,0.873674098,0.12100402
376,C4H11N-D2,TERT-BUTYLAMINE,ERROR,ERROR,ERROR,ERROR,ERROR,ERROR,ERROR,ERROR,ERROR,ERROR,ERROR,ERROR
377,C4H10O3,DIETHYLENE-GLYCOL,106.1216,1112.84652,359.801276,86034.7913,29.6661342,244.8,6.86330373,8.01319965,0.000368929,133.468253,0.856499779,4.660621455
378,DEGLY-20,DIETHYLENE-GLYCOL-20-WT-%,ERROR,ERROR,ERROR,ERROR,ERROR,ERROR,ERROR,ERROR,ERROR,ERROR,ERROR,ERROR
379,DEGLY-40,DIETHYLENE-GLYCOL-40-WT-%,ERROR,ERROR,ERROR,ERROR,ERROR,ERROR,ERROR,ERROR,ERROR,ERROR,ERROR,ERROR
380,DEGLY-60,DIETHYLENE-GLYCOL-60-WT-%,ERROR,ERROR,ERROR,ERROR,ERROR,ERROR,ERROR,ERROR,ERROR,ERROR,ERROR,ERROR
381,DEGLY-80,DIETHYLENE-GLYCOL-80-WT-%,ERROR,ERROR,ERROR,ERROR,ERROR,ERROR,ERROR,ERROR,ERROR,ERROR,ERROR,ERROR
382,C7H16-3,3-METHYLHEXANE,100.20404,693.636966,220.114775,35104.7684,0.346263397,91.85,0.969012415,1.23808141,8.18653957,1.37760265,0.782672615,1.489661328
383,C4H6O2-2,METHYL-ACRYLATE,86.09044,948.984082,147.191705,34986.7589,0.459475407,80.2,1.59314956,1.22733533,11.6179613,1.19736358,1.29805565,1.394743727
384,C6F14,PERFLUORO-N-HEXANE,338.0436,1671.52208,339.645857,31606.1911,0.660889263,57.15,4.44455515,7.59223118,29.1122915,32588.8563,0.5854083,-2.647639627
385,C6H3CL3,"1,2,4-TRICHLOROBENZENE",181.44792,1448.99353,188.794674,56290.5983,1.88153956,213,2.0583543,2.34846819,0.057364119,4.29492175,0.876466758,3.428325562
386,C5H12-3,"2,2-DIMETHYL-PROPANE",72.15028,585.278152,None,None,None,9.5,1.06731698,1.38900073,171.468143,1.46225242,0.768406349,0.192633141
387,C4H12SI,TETRAMETHYLSILANE,88.22478,636.807864,196.328884,24487.2253,0.87195,26.65,1.11227477,1.5750239,95.7282842,2.55450694,0.706195487,0.258076247
388,C6H14O-D4,4-METHYL-2-PENTANOL,102.17656,804.896323,222.731681,49798.1805,4.08388092,131.7,1.76175987,2.11289579,0.70195847,3.77619499,0.833812949,2.350648708
389,C12H10,DIPHENYL,154.2114,1028.60926,217.40894,63783.7827,2.90669409,255,1.43023025,1.38306585,0.003945001,2.04569078,1.034101341,4.683092239
390,C13H12,DIPHENYLMETHANE,168.23828,1062.82865,258.196094,67429.5934,2.7549909,264.272,1.17573085,1.11335351,0.001956022,1.56009713,1.056026536,5.011244183
391,C14H14-D2,"1,2-DIPHENYLETHANE",182.26516,979.058216,270.414769,69008.6417,3.66593642,280.5,1.00645061,0.937443976,0.000983042,1.16795159,1.073611475,5.36108485
392,C10H14-3,SEC-BUTYLBENZENE,134.22116,857.646655,225.571658,47982.5964,0.925517107,173.33,0.959638792,1.03837181,0.224066021,1.1576913,0.924176468,3.051520578
393,C6H12-D2,2-METHYL-1-PENTENE,84.16128,675.117387,191.813632,30527.4296,0.270916084,62.1,0.953468421,1.09792183,26.0643611,1.13962809,0.868430151,1.016897651
394,C6H12-D3,4-METHYL-1-PENTENE,84.16128,658.979123,177.954546,28703.2415,0.259024514,53.86,0.95032249,1.06539807,36.1837267,1.08938043,0.891988184,0.880955502
395,C9H12-D1,VINYLNORBORNENE,ERROR,ERROR,ERROR,ERROR,ERROR,ERROR,ERROR,ERROR,ERROR,ERROR,ERROR,ERROR
396,C9H12,5-ETHYLIDENE-2-NORBORNENE,120.19428,892.736656,208.920753,43902.138,1.22199274,147.52,0.988550193,1.05266256,0.790194313,1.10707582,0.939095044,2.529514372
397,C8H12-D1,"1,5-CYCLOOCTADIENE",108.18328,874.370702,193.552625,44809.5962,0.594884935,150.12,0.954400481,1.00388839,0.659185349,1.02067362,0.950703774,2.622927455
398,C10H12-D0,DICYCLOPENTADIENE,132.20528,977.353913,185.073675,44229.7689,0.9210359,169.85,1.19164996,1.20639519,0.376363009,1.43245136,0.987777446,2.798939241
399,C20H42,N-EICOSANE,282.55348,782.634786,578.654352,97284.0871,5.42662721,3.44E+02,0.52491628,0.649805982,2.07832E-06,0.40470993,0.807804629,8.33706309
400,C9H12-8,"1,3,5-TRIMETHYLBENZENE",120.19428,862.278265,205.986834,47416.9157,0.745427633,164.74,0.829029356,0.743659624,0.336882406,0.606372313,1.114796782,3.01029297
401,C9H10O2-D0,BENZYL-ACETATE,150.1772,1051.07373,224.815881,59287.2068,2.12278732,214,1.69395353,1.25820022,0.021061303,1.69575977,1.346330658,3.996036661