Index,Solvent,cname,MW,RHO,CP,HV,MU,BP,GAMMA1,GAMMA2,VP,GAMMAS,S,alpha
1339,C12H36SI5O4,DODECAMETHYLPENTASILOXANE,384.84294,869.142323,546.968529,65543.9636,1.8391148,229.95,0.692952148,0.769670472,0.007801238,388.635651,0.900323155,1.853735095
1340,C14H42SI6O5,TETRADECAMETHYLHEXASILOXANE,458.99748,882.818933,626.526028,71888.2282,2.34215194,259.8,0.618495987,0.675470815,0.001187532,831.545698,0.915651681,2.284211571
1341,C8H14-N3,BICYCLO-2-2-2-OCTANE,110.19916,927.585349,183.756227,38499.6303,0.838989105,146.054,1.1459946,1.4410922,2.87178073,1.64096277,0.795226426,1.934578223
1342,C6H8N2-D4,P-PHENYLENEDIAMINE,108.143,1155.83075,197.710462,73537.1635,13.5630253,266.85,13.8179287,11.5476581,0.000837214,91.714384,1.196600088,4.626356256
1343,C2HCL2F3-D2,"1,2-DICHLORO-1,1,2-TRIFLUOROETHA",152.93054,1465.38634,154.771271,25503.692,0.441400459,28,1.00844565,0.97158898,91.2390504,0.966524347,1.037934426,0.491225485
1344,AL,ALUMINIUM,ERROR,ERROR,ERROR,ERROR,ERROR,ERROR,ERROR,ERROR,ERROR,ERROR,ERROR,ERROR
1345,C8H16-D1,2-ETHYL-1-HEXENE,112.21504,722.815024,215.587661,38747.0828,0.446546318,120,0.865476939,1.00692879,2.62469856,1.03840543,0.859521495,2.016688835
1346,C6H10O3-D2,PROPIONIC-ANHYDRIDE,130.1436,1006.00948,207.492977,51891.2109,1.04533604,167,1.79758673,1.31459653,0.183346952,1.6338263,1.367405656,3.091449365
1347,C6H12O3-E2,PG-MONOMETHYL-ETHER-ACETATE,132.15948,964.474817,229.388118,48120.333,1.05677651,145.8,1.57718818,1.14732194,0.522494233,2.10155937,1.374669241,2.468198594
1348,C7H16O2,PG-1-TERT-BUTYL-ETHER,132.20284,866.314315,242.625937,48483.7349,7.06844068,152.05,1.6209664,1.78131206,0.430276227,4.1033804,0.90998452,2.452987337
1349,C7H16O2-D3,PROPYLENE-GLYCOL-N-BUTYL-ETHER,132.20284,874.367433,261.959694,53544.3881,2.7543304,170,1.63550638,1.79520486,0.136974618,4.10203122,0.91104164,2.953611416
1350,C14H22O,P-TERT-OCTYLPHENOL,206.32808,965.941767,391.270643,79727.9181,3.31608864,290.45,0.776652378,0.733039798,0.000225954,0.568565004,1.059495515,6.205463402
1351,C18H15PO,TRIPHENYLPHOSPHINE-OXIDE,ERROR,ERROR,ERROR,ERROR,ERROR,ERROR,ERROR,ERROR,ERROR,ERROR,ERROR,ERROR
1352,C8H18O-D5,ISOBUTYL-TERT-BUTYL-ETHER,130.23032,741.356259,255.403493,38947.6524,0.558566144,113.25,0.884504577,1.02745584,3.28204957,1.09507004,0.860868704,1.905312592
1353,C7H12-N3,BICYCLO-2-2-1-HEPTANE,96.17228,815.352161,174.813834,34855.9925,0.638595053,105,1.23540984,1.5614501,6.21636011,1.68915984,0.791193929,1.621457658
1354,C4F8-D1,OCTAFLUORO-2-BUTENE,ERROR,ERROR,ERROR,ERROR,ERROR,ERROR,ERROR,ERROR,ERROR,ERROR,ERROR,ERROR
1355,C8H18O-D4,SEC-BUTYL-TERT-BUTYL-ETHER,130.23032,757.149499,255.348632,38717.8715,0.558566144,114,0.872052239,1.05044877,3.26627734,1.12313929,0.830171127,1.906024659
1356,C4H4O3,SUCCINIC-ANHYDRIDE,100.07396,1671.11599,176.799807,67234.2249,0.861948027,263.43,6.45942142,3.8083472,0.00219168,4.68098131,1.696121987,5.018758869
1357,FE(CO)5,IRON-PENTACARBONYL,ERROR,ERROR,ERROR,ERROR,ERROR,ERROR,ERROR,ERROR,ERROR,ERROR,ERROR,ERROR
1358,H3BO3,HYDROGEN-ORTHOBORATE,ERROR,ERROR,ERROR,ERROR,ERROR,ERROR,ERROR,ERROR,ERROR,ERROR,ERROR,ERROR
1359,C4NIO4,NICKEL-CARBONYL,ERROR,ERROR,ERROR,ERROR,ERROR,ERROR,ERROR,ERROR,ERROR,ERROR,ERROR,ERROR
1360,C3H8N2O,"1,3-DIMETHYL-UREA",88.1094,948.948922,170.486686,77920.3707,12.2879572,269,4.66426887,2.72968928,0.000456429,5.96470562,1.708717876,5.450287839
1361,C8H16-14,N-PROPYLCYCLOPENTANE,112.21504,773.215,219.991072,41224.4328,0.64021801,130.96,0.996177166,1.26208904,1.64722584,1.41559852,0.789308151,2.182533209
1362,C10H22-E2,2-METHYLNONANE,142.28468,722.938281,300.957425,49566.1996,0.814087274,167,0.823296855,1.0373113,0.251282793,1.14368872,0.793683492,3.006574981
1363,C10H22-E3,3-METHYLNONANE,142.28468,729.310252,311.990734,49718.9057,0.789815756,167.8,0.823296855,1.0373113,0.263726675,1.14368872,0.793683492,2.985583672
1364,C10H22-E4,4-METHYLNONANE,142.28468,728.20137,291.631418,49434.3568,0.750375883,165.7,0.823296855,1.0373113,0.308736839,1.14368872,0.793683492,2.917149278
1365,C10H22-E5,5-METHYLNONANE,142.28468,728.564784,300.905278,49421.2883,0.765238752,165.15,0.823296855,1.0373113,0.294022078,1.14368872,0.793683492,2.938357789
1366,C2H4O3-D1,GLYCOLIC-ACID,76.05196,1348.64347,219.470603,78260.9889,31.9917247,169.85,43.5105097,80.2894008,0.012795289,149.892926,0.541920967,4.07096345
1367,C4H6O5,DIGLYCOLIC-ACID,134.08864,1561.5168,256.324963,114659.944,11.2077635,3.37E+02,27.996614,32.0153495,2.52161E-07,148.876731,0.874474727,8.379990677
1368,C6H6O3S,BENZENESULFONIC-ACID,ERROR,ERROR,ERROR,ERROR,ERROR,ERROR,ERROR,ERROR,ERROR,ERROR,ERROR,ERROR
1369,C7H8O3S-D1,O-TOLUENESULFONIC-ACID,ERROR,ERROR,ERROR,ERROR,ERROR,ERROR,ERROR,ERROR,ERROR,ERROR,ERROR,ERROR
1370,C7H8O3S,P-TOLUENESULFONIC-ACID,ERROR,ERROR,ERROR,ERROR,ERROR,ERROR,ERROR,ERROR,ERROR,ERROR,ERROR,ERROR
1371,C6H5CLO3S,P-CHLOROBENZYLSULFONIC-ACID,ERROR,ERROR,ERROR,ERROR,ERROR,ERROR,ERROR,ERROR,ERROR,ERROR,ERROR,ERROR
1372,C2H5NO2-D1,GLYCINE,ERROR,ERROR,ERROR,ERROR,ERROR,ERROR,ERROR,ERROR,ERROR,ERROR,ERROR,ERROR
1373,C5H9NO4,L-GLUTAMIC-ACID,147.1308,1107.16524,307.364546,113751.333,68.7213415,3.18E+02,10.9360919,12.9681405,2.30387E-06,85.4997978,0.843304551,7.267590786
1374,C14H31N,TETRADECYLAMINE,213.40688,814.048312,444.098575,79290.9343,4.7487208,291.3,0.655327797,0.737976003,0.000175096,0.568784199,0.888006919,6.318955175
1375,C16H35N-D1,DI-N-OCTYLAMINE,241.46064,800.323581,482.039333,82017.322,4.12179214,3.08E+02,0.559149534,0.626827744,7.04802E-05,0.338812609,0.892030609,6.868257764
1376,C16H35N-D2,DI-2-ETHYLHEXYLAMINE,241.46064,803.327063,492.385332,84008.968,16.1421652,281.1,0.559523616,0.627146006,0.000112537,0.339374308,0.892174407,6.664529811
1377,C10H19N,CAPRINITRILE,ERROR,ERROR,ERROR,ERROR,ERROR,ERROR,ERROR,ERROR,ERROR,ERROR,ERROR,ERROR
1378,C9H6O6,TRIMELLITIC-ACID,210.14304,1176.98545,307.324929,152625.24,311.335098,4.02E+02,25.3898398,30.9052725,4.41646E-10,431.199394,0.821537484,10.65941675
1379,C10H23N-D1,DIAMYLAMINE,157.29936,773.996585,334.467266,62482.0441,1.44723065,203,0.735401119,0.793644224,0.020424153,0.655138145,0.92661308,4.22228538
1380,C16H48SI7O6,HEXADECAMETHYLHEPTASILOXANE,533.15202,895.037937,696.584663,77945.7707,2.94156072,286.79,0.557536225,0.601204641,0.000228769,1599.18143,0.927365138,2.664864224
1381,C18H54SI8O7,OCTADECAMETHYLOCTASILOXANE,607.30656,902.545198,781.923831,83507.2994,3.51049774,3.10E+02,0.506969125,0.54126501,4.91101E-05,2815.76763,0.936637535,3.041779151
1382,C12H36SI6O6,DODECAMETHYLCYCLOHEXASILOXANE,444.92724,961.920421,571.334693,66184.9822,6.77459219,245,0.392543732,0.314988932,0.004223769,0.023787,1.246214365,5.945391972
1383,C16H48O8SI8,HEXADECAMETHYL-CYCLOOCTASILOXANE,593.23632,970.574786,749.315686,79871.5914,14.372438,303.2,0.306997239,0.24553254,0.000130262,0.003506024,1.250332192,8.179613547
1384,C8H18-11,3-ETHYLHEXANE,114.23092,720.82892,251.932919,39779.6387,0.431675155,118.54,0.917722109,1.16588742,2.67716267,1.3100331,0.787144705,1.970836047
1385,C5H12S-D2,METHYL-N-BUTYL-SULFIDE,104.21628,837.988888,203.014633,40938.5223,0.558712773,123.43,0.023207944,0.000512421,2.07859889,0.121074591,45.29073258,-0.242059912
1386,C5H12S-D4,ETHYL-PROPYL-SULFIDE,104.21628,832.480286,194.674999,39903.2617,0.496016298,118.5,0.042683343,0.00192232,2.59829479,0.196910978,22.20407794,0.024003793
1387,C12H26O4,TRIETHYLENE-GLYCOL-N-HEXYL-ETHER,234.33604,960.380264,362.261353,77004.8525,10.6675229,2.97E+02,1.07235317,1.07862547,8.47062E-05,2.69918955,0.994184914,6.122858714
1388,C4H10O2-D6,"1,2-BUTANEDIOL",90.1222,1002.41782,214.570278,69123.9062,49.069035,196.42,5.97324143,8.02816398,0.010019773,76.1800759,0.744035803,3.471053433
1389,C15H12-D1,4-METHYLPHENANTHRENE,192.26028,1092.56951,251.15377,75941.8903,9.43396435,3.55E+02,1.23906454,1.14263788,3.5061E-05,1.84806134,1.084389518,6.695504158
1390,S,SULFUR,ERROR,ERROR,ERROR,ERROR,ERROR,ERROR,ERROR,ERROR,ERROR,ERROR,ERROR,ERROR
1391,C27H56,N-HEPTACOSANE,380.74164,798.421599,784.011176,130173.447,11.4792412,4.22E+02,0.415561265,0.51194273,1.76506E-09,0.165795527,0.811733893,11.69202546
1392,C29H60,N-NONACOSANE,408.7954,801.113825,831.865846,135723.056,13.3432438,4.41E+02,0.392072698,0.482538208,1.12098E-10,0.126792335,0.812521561,12.97997726
1393,C8H20PB,TETRAETHYL-LEAD,ERROR,ERROR,ERROR,ERROR,ERROR,ERROR,ERROR,ERROR,ERROR,ERROR,ERROR,ERROR
1394,C5H10O-D1,2-METHYLBUTYRALDEHYDE,86.1338,802.433928,165.610296,36616.3852,0.507599379,91.65,1.27397549,1.01529193,7.29857063,1.23621748,1.254787369,1.500394699
1395,C8H16O,2-ETHYLHEXANAL,128.21444,815.811403,245.391795,49824.786,0.991216731,163,0.945409003,0.855503806,0.275315835,0.826950356,1.105090353,3.024047777
1396,C8H8O-D0,P-TOLUALDEHYDE,120.15092,1010.15088,177.268815,54692.7225,2.01131517,207.25,2.06203863,1.37310492,0.041858392,2.12125876,1.501734208,3.638463991
1397,C11H22O,1-UNDECANAL,170.29508,823.294161,306.738714,64084.825,2.27429198,233,0.761931296,0.735306416,0.004451462,0.553105438,1.036209231,4.924294242
1398,C12H24O,1-DODECANAL,184.32196,855.736398,309.921412,66445.5584,2.85804262,248.85,0.716897343,0.702345086,0.001482266,0.483160767,1.020719526,5.440669296
1399,C4H11NO-D2,"N,N-DIETHYLHYDROXYLAMINE",ERROR,ERROR,ERROR,ERROR,ERROR,ERROR,ERROR,ERROR,ERROR,ERROR,ERROR,ERROR
1400,C19H38O2,NONADECANOIC-ACID,298.50952,876.432783,654.411425,136230.474,38.0469533,3.84E+02,0.558918048,0.622480751,3.71331E-09,0.304364582,0.897888083,11.19010744
1401,C4H10N2,PIPERAZINE,86.13688,714.711034,184.545914,49840.6454,0.966626992,146,1.79479046,1.26650793,0.538817156,1.52511248,1.417117428,2.637001083
1402,I2,IODINE,253.80894,4197.26764,87.4731589,49889.8164,4.79995535,184.41,0.648599084,0.971980339,0.17803025,0.910176158,0.667296506,3.227174684
1403,C6H4O2,QUINONE,ERROR,ERROR,ERROR,ERROR,ERROR,ERROR,ERROR,ERROR,ERROR,ERROR,ERROR,ERROR
1404,C7H5CLO2,O-CHLOROBENZOIC-ACID,156.5682,1537.38573,120.666786,79500,46.3020861,287,4.41730035,4.08293023,0.000159126,7.40059832,1.081894645,5.989101275
1405,C8H4O3,PHTHALIC-ANHYDRIDE,ERROR,ERROR,ERROR,ERROR,ERROR,ERROR,ERROR,ERROR,ERROR,ERROR,ERROR,ERROR
1406,C6H4N2O4-E3,P-DINITROBENZENE,168.10884,1346.79304,301.007727,80662.5366,14.9855225,298.35,1.56360669,0.231840156,0.000548909,0.179861896,6.744330736,5.819885653
1407,C4H6O-D1,TRANS-CROTONALDEHYDE,70.09104,848.553362,165.862688,38936.8242,0.428075863,102.5,2.10550881,1.33048501,4.70018384,1.79806297,1.582512237,1.646226704
1408,C6H13N-D3,N-ETHYL-2-METHYLALLYLAMINE,99.17596,752.861018,201.12869,38598.5854,0.520032166,104.75,0.971395388,0.906246289,4.3121488,0.875702393,1.071888955,1.829332426
1409,C6H14S2,DI-N-PROPYLDISULFIDE,150.30916,954.60705,240.294029,53092.9468,1.29321894,195.85,0.012972512,0.000155711,0.103925618,0.032661823,83.31147949,1.110692659
1410,C8H18S2-N1,"DISULFIDE,-DIBUTYL",178.36292,932.998946,292.631934,61870.0178,1.71635087,235.95,0.019029065,0.000417402,0.00831482,0.025118459,45.58928991,2.749845221
1411,C6H14O-E4,METHYL-N-PENTYL-ETHER,102.17656,756.299184,209.295026,37166.4035,0.438373943,98.85,1.07544888,1.17403703,5.69364792,1.33210717,0.916026371,1.638888481
1412,C2H2O4,OXALIC-ACID,90.03548,1254.55835,172.358171,80871.678,5.82394094,242.85,4424.17925,1.04E+05,0.002282607,157.989909,0.042716335,7.907314694
1413,C8F18,PERFLUORO-N-OCTANE,438.0592,1769.94082,417.40074,41130.7962,1.40299184,103.3,3.75944919,6.37379184,4.72391353,452743.136,0.589829302,-3.076619478
1414,C6H15AL,TRIETHYL-ALUMINUM,ERROR,ERROR,ERROR,ERROR,ERROR,ERROR,ERROR,ERROR,ERROR,ERROR,ERROR,ERROR
1415,C8H16-13,1-METHYL-1-ETHYLCYCLOPENTANE,112.21504,776.726613,209.926959,38830.752,0.646525639,121.522,0.977503223,1.24144006,2.62957127,1.38588504,0.787394619,1.981450063
1416,C2HF5O,PENTAFLUORODIMETHYL-ETHER,ERROR,ERROR,ERROR,ERROR,ERROR,ERROR,ERROR,ERROR,ERROR,ERROR,ERROR,ERROR
1417,C9H20O-E1,2-NONANOL,144.2572,821.716801,395.4892,72456.0059,8.43103044,198.55,1.18731994,1.38397081,0.010858082,2.17708474,0.857908224,4.216634932
1418,C3HF7,"1,1,1,2,3,3,3-HEPTAFLUOROPROPANE",ERROR,ERROR,ERROR,ERROR,ERROR,ERROR,ERROR,ERROR,ERROR,ERROR,ERROR,ERROR
1419,C6H5NO2-D1,NIACIN,123.11124,1151.66729,190.146785,76231.0601,24.6072186,252.85,12.5162506,14.7326918,0.003554717,239.488092,0.849556264,3.687329645
1420,C10H14O2,P-TERT-BUTYLCATECHOL,166.21996,1056.60815,300.203039,8.44E+04,8.311199,2.85E+02,1.62867752,1.39E+00,6.67494E-05,2.3895452,1.174701532,6.388281269
1421,C18H22,"2,3-DIMETHYL-2,3-DIPHENYLBUTANE",238.37268,1099.14013,401.324481,79996.6665,14.5586697,315.85,0.744176198,0.796538064,0.000180727,0.774662726,0.934263197,6.20420767
1422,C2H6N2O-N1,MONOMETHYLUREA,74.08252,933.151252,174.843175,95623.387,27.0396232,2.91E+02,4.59823625,2.6955884,1.33478E-05,4.19831998,1.705837675,7.131305854
1423,C5H11N-D1,CYCLOPENTYLAMINE,85.14908,858.209431,158.874731,39340.3789,1.10190837,108.47,1.32136087,1.42381074,3.48970855,1.53148824,0.928045303,1.874685901
1424,C7H6N2O4-E3,"2,6-DINITROTOLUENE",182.13572,1375.43731,238.18489,65802.9981,14.9429176,284.85,0.934329526,0.177694012,0.001259684,0.10167424,5.2580811,5.59133665
1425,C3H9AL,TRIMETHYLALUMINUM,ERROR,ERROR,ERROR,ERROR,ERROR,ERROR,ERROR,ERROR,ERROR,ERROR,ERROR,ERROR
1426,C7H14O-D3,1-METHYLCYCLOHEXANOL,114.18756,926.235332,246.198383,51437.798,26.9193575,168,1.7225281,2.05827692,0.23983348,3.59240142,0.836878694,2.827345596
1427,KOH,POTASSIUM-HYDROXIDE,ERROR,ERROR,ERROR,ERROR,ERROR,ERROR,ERROR,ERROR,ERROR,ERROR,ERROR,ERROR
1428,C9H20-D4,"2,4,4-TRIMETHYLHEXANE",128.2578,720.051158,266.040841,40256.4227,0.715966834,130.66,0.863149945,1.09293391,1.79092223,1.22685871,0.789754931,2.145859083
1429,C9H7NO,8-HYDROXYQUINOLINE,ERROR,ERROR,ERROR,ERROR,ERROR,ERROR,ERROR,ERROR,ERROR,ERROR,ERROR,ERROR
1430,C4H5N-D1,CYCLOPROPYL-CYANIDE,ERROR,ERROR,ERROR,ERROR,ERROR,ERROR,ERROR,ERROR,ERROR,ERROR,ERROR,ERROR
1431,NO2,NITROGEN-DIOXIDE,46.00554,1486.77589,None,None,None,21,0.554231885,0.694230021,121.072309,0.797183739,0.798340418,0.306036594
1432,C5H9NS,N-METHYLTHIOPYRROLIDONE,ERROR,ERROR,ERROR,ERROR,ERROR,ERROR,ERROR,ERROR,ERROR,ERROR,ERROR,ERROR
1433,C6H8O4-D2,DILACTIDE-DL,144.12712,1389.65716,248.394915,88986.6215,92.098629,255.05,2.56446455,2.09454901,0.000125195,1.65726587,1.224351656,6.45324648
1434,C5H14N2-N2,3-DIMETHYLAMINOPROPYLAMINE,102.17964,815.485797,206.582874,44901.777,1.04125172,134.5,1.35273508,1.33785669,0.995185406,1.80449442,1.011121064,2.321286513
1435,GEH4,GERMANIUM-TETRAHYDRIDE,ERROR,ERROR,ERROR,ERROR,ERROR,ERROR,ERROR,ERROR,ERROR,ERROR,ERROR,ERROR
1436,C4H8CL2-D1,"1,2-DICHLOROBUTANE",127.01292,1110.89374,172.797431,40120.4221,1.19295682,124,0.994038998,0.809233747,2.1652615,0.763506509,1.228370668,2.138887348
1437,P-W,PHOSPHORUS-WHITE,ERROR,ERROR,ERROR,ERROR,ERROR,ERROR,ERROR,ERROR,ERROR,ERROR,ERROR,ERROR
1438,CL6SI2,HEXACHLORODISILANE,ERROR,ERROR,ERROR,ERROR,ERROR,ERROR,ERROR,ERROR,ERROR,ERROR,ERROR,ERROR
1439,C9H10O,2-PHENYLPROPIONALDEHYDE,134.1778,1003.28218,156.402629,44763.4577,2.27234626,198.85,1.71806472,1.26596738,0.132715699,1.93437645,1.357116105,3.142095681
1440,C4H12N2O,N-AMINOETHYL-ETHANOLAMINE,104.15216,1026.16864,266.872663,90592.7459,112.417614,243.85,4.30705448,3.96561093,0.000109587,60.9878886,1.086101122,5.222444252
1441,C7H10N2,TOLUENEDIAMINE,122.16988,1106.39535,210.704264,74577.2949,16.7218247,284,4.61646084,3.72571174,0.000277159,38.5585014,1.239081594,4.991496212
1442,C10H22O2-D1,"DECAN-1,10-DIOL",174.28348,1061.61166,387.316135,104638.312,191.612419,3.01E+02,1.61025377,1.92870224,3.16413E-06,10.8750624,0.83488977,7.197715334
1443,C7H10,2-NORBORNENE,94.1564,805.687402,150.713698,33504.7455,0.532336681,95.5,1.18569175,1.3173701,8.25473803,1.40794549,0.900044528,1.503555126
1444,ZN,ZINC,ERROR,ERROR,ERROR,ERROR,ERROR,ERROR,ERROR,ERROR,ERROR,ERROR,ERROR,ERROR
1445,C6H8O7,CITRIC-ACID,192.12532,1126.13212,438.69379,178618.677,5088.54357,3.68E+02,38.9789944,75.7584951,6.6915E-12,5865.61065,0.514516482,11.73473088
1446,C6H10O2-D3,N-PROPYL-ACRYLATE,114.1442,898.638132,218.831026,43156.6062,0.590193965,119,1.13311277,0.946692415,1.92060281,0.865190236,1.196917554,2.204796188
1447,C6H10O2-D5,ISOPROPYL-ACRYLATE,114.1442,885.818729,178.156387,37234.2687,0.518984869,110,1.13401284,0.947137034,3.7417599,0.865720867,1.197305986,1.915095476
1448,C7H16S,N-HEPTYL-MERCAPTAN,132.27004,838.89006,252.371563,50803.7083,0.87327797,176.944,0.7936683,0.751693507,0.17653426,0.644691881,1.055840303,3.268996057
1449,C8H6O4-D3,TEREPHTHALIC-ACID,166.13324,1764.46632,262.810806,126670.097,131.353847,3.30E+02,11.5984214,11.9072481,4.27757E-06,44.7523841,0.974063974,7.242934847
1450,C2H4N4,DICYANDIAMIDE,ERROR,ERROR,ERROR,ERROR,ERROR,ERROR,ERROR,ERROR,ERROR,ERROR,ERROR,ERROR
1451,C5H12S-D1,METHYL-T-BUTYL-SULFIDE,104.21628,820.740637,200.098757,35890.7843,0.610902882,98.898,0.024186114,0.000566695,6.34784446,0.120321734,42.67927105,-0.680484794
1452,C5H12S,1-PENTANETHIOL,104.21628,836.723,197.424868,41241.8424,0.605263045,126.64,0.892316762,0.7989293,1.83972429,0.751173258,1.116890771,2.211151948
1453,LI,LITHIUM,ERROR,ERROR,ERROR,ERROR,ERROR,ERROR,ERROR,ERROR,ERROR,ERROR,ERROR,ERROR
1454,C7H14O-E4,3-METHYLHEXANAL,114.18756,814.262378,201.410818,43537.8231,0.959453724,144.31,1.03116359,0.90396959,0.803301315,0.944697788,1.140706061,2.525118905
1455,C8H18O-D6,2-METHYL-1-HEPTANOL,130.23032,798.012997,286.836178,61638.441,6.66767757,175.4,1.33045606,1.56205893,0.050679218,2.6049568,0.851732309,3.522203447
1456,SI,SILICON,ERROR,ERROR,ERROR,ERROR,ERROR,ERROR,ERROR,ERROR,ERROR,ERROR,ERROR,ERROR
1457,AL2O3,ALUMINIUM-OXIDE-ALPHA-CORUNDUM,ERROR,ERROR,ERROR,ERROR,ERROR,ERROR,ERROR,ERROR,ERROR,ERROR,ERROR,ERROR
1458,C10H20-4,TERT-BUTYLCYCLOHEXANE,140.2688,808.913413,275.147859,47087.3993,1.23161663,171.5,0.874886725,1.10111385,0.310573062,1.23668596,0.794547017,2.906545471
1459,C10F22,PERFLUORO-N-DECANE,538.0748,1868.13148,491.745139,49356.139,2.60821496,144.2,3.24361655,5.47313133,1.4867186,5970271.74,0.592643654,-3.760850544
1460,GE,GERMANIUM,ERROR,ERROR,ERROR,ERROR,ERROR,ERROR,ERROR,ERROR,ERROR,ERROR,ERROR,ERROR
1461,C19H16,TRIPHENYLMETHANE,244.33604,1062.56679,322.6466,85412.8175,15.7812301,3.59E+02,1.10190352,1.05523941,9.07077E-06,1.80671226,1.044221349,7.25795415
1462,C15H30-1,N-DECYLCYCLOPENTANE,210.4032,790.759905,383.969293,71204.977,3.11192804,279.35,0.683720665,0.849198347,0.000893902,0.815214118,0.805136594,5.515584227
1463,C16H32-1,N-DECYLCYCLOHEXANE,224.43008,814.273789,412.054514,78815.1478,4.58738509,297.6,0.652640468,0.809447239,0.000136574,0.734616899,0.806279195,6.355895474
1464,C24H18-N3,METAQUATERPHENYL,306.40692,1125.54999,437.124566,123823.837,728.591124,4.80E+02,1.0405726,0.977126531,5.48451E-10,2.00084784,1.064931272,11.39873573
1465,MGO,MAGNESIUM-OXIDE,ERROR,ERROR,ERROR,ERROR,ERROR,ERROR,ERROR,ERROR,ERROR,ERROR,ERROR,ERROR
1466,CAO,CALCIUM-OXIDE,ERROR,ERROR,ERROR,ERROR,ERROR,ERROR,ERROR,ERROR,ERROR,ERROR,ERROR,ERROR
1467,ZNO,ZINC-OXIDE,ERROR,ERROR,ERROR,ERROR,ERROR,ERROR,ERROR,ERROR,ERROR,ERROR,ERROR,ERROR
1468,C8H16-D10,6-METHYL-1-HEPTENE,112.21504,707.862046,235.584377,38983.605,0.386033019,113.2,0.866182172,0.986707567,3.30458155,0.999238517,0.877850947,1.924539279
1469,C4H4O4-D1,FUMARIC-ACID,116.07336,1396.46598,261.976157,101965.771,39.4235569,290,8.84334928,10.8914125,0.000114527,29.5452538,0.811956143,5.956824382
1470,C4H4O4-D2,MALEIC-ACID,116.07336,1396.36554,223.232137,100690.627,43.7404314,2.92E+02,8.84334928,10.8914125,8.14617E-06,29.5452538,0.811956143,7.10477941
1471,C14H12-D1,CIS-STILBENE,180.24928,1010.92451,257.770192,68844.127,5.12407198,280.85,1.16168258,1.09824855,0.000948566,1.47230634,1.057759266,5.344771233
1472,KCL,POTASSIUM-CHLORIDE,ERROR,ERROR,ERROR,ERROR,ERROR,ERROR,ERROR,ERROR,ERROR,ERROR,ERROR,ERROR
1473,HGCL2,MERCURY-DICHLORIDE,ERROR,ERROR,ERROR,ERROR,ERROR,ERROR,ERROR,ERROR,ERROR,ERROR,ERROR,ERROR
1474,C4H4N2-D3,PYRIMIDINE,ERROR,ERROR,ERROR,ERROR,ERROR,ERROR,ERROR,ERROR,ERROR,ERROR,ERROR,ERROR
1475,ZNS,ZINC-SULFIDE-WURTZITE,ERROR,ERROR,ERROR,ERROR,ERROR,ERROR,ERROR,ERROR,ERROR,ERROR,ERROR,ERROR
1476,NABR,SODIUM-BROMIDE,ERROR,ERROR,ERROR,ERROR,ERROR,ERROR,ERROR,ERROR,ERROR,ERROR,ERROR,ERROR