Index,Solvent,cname,MW,RHO,CP,HV,MU,BP,GAMMA1,GAMMA2,VP,GAMMAS,S,alpha
2053,C12H26O-D1,2-METHYL-1-UNDECANOL,186.33784,821.982085,411.781288,84042.6868,15.6023789,247.85,0.90097601,1.03548066,0.000288002,1.29019022,0.870104141,5.894229173
2054,C6H14N2O-D2,4-2-AMINOETHYL-MORPHOLINE,130.19004,888.624714,250.939224,60682.9991,3.58209191,202,1.58506085,1.46174045,0.029796558,2.58977915,1.084365456,3.726577899
2055,C7H12O3-D1,ETHYL-LEVULINATE,144.17048,1008.34999,233.617802,58912.1121,1.70517414,205.8,1.7148952,1.25211292,0.024925388,1.63136431,1.369601074,3.93758708
2056,H8N2S,AMMONIUM-SULFIDE,ERROR,ERROR,ERROR,ERROR,ERROR,ERROR,ERROR,ERROR,ERROR,ERROR,ERROR,ERROR
2057,C8H10O3,SYRINGOL,ERROR,ERROR,ERROR,ERROR,ERROR,ERROR,ERROR,ERROR,ERROR,ERROR,ERROR,ERROR
2058,C6H12S-D1,2-ETHYL-TETRAHYDROTHIOPHENE,116.22728,938.883014,187.882305,46134.6278,0.229886002,156,0.04244667,0.001789409,0.50416999,0.207015946,23.7210556,0.683265282
2059,C14H26O4-N4,TETRADECANEDIOIC-ACID,258.35804,1041.36105,524.340457,141480.385,18.9810545,4.01E+02,1.07125219,1.19650537,1.09534E-10,1.66561865,0.895317494,12.26592844
2060,C3H2F4,HFO-1234YF,ERROR,ERROR,ERROR,ERROR,ERROR,ERROR,ERROR,ERROR,ERROR,ERROR,ERROR,ERROR
2061,C3H9NO2,AMMONIUM-PROPIONATE,ERROR,ERROR,ERROR,ERROR,ERROR,ERROR,ERROR,ERROR,ERROR,ERROR,ERROR,ERROR
2062,C30H50O4,DI-N-UNDECYL-PHTHALATE,474.7246,984.378782,786.884709,151818.713,59.9947596,4.80E+02,0.365522932,0.352094928,2.82219E-12,0.022948188,1.038137454,15.18446133
2063,C16H16O2,"TRANS-3,5-DIMETHOXYSTILBENE",240.30184,1097.12108,371.483623,106425.235,20.5650806,3.95E+02,1.34803334,1.13860436,1.25226E-07,2.85193672,1.183934813,8.952674621
2064,C20H30O2-D2,PIMARIC-ACID,302.457,1040.48725,477.616656,92340.445,250.607616,3.50E+02,0.62487751,0.639985978,1.74099E-05,0.34380705,0.976392502,7.478194877
2065,C20H30O2-D3,ISOPIMARIC-ACID,302.457,1040.48725,476.849696,91858.4337,250.607616,3.50E+02,0.616556762,0.632949503,8.64925E-06,0.329991222,0.974101029,7.795024552
2066,C4H6O-D5,CIS-CROTONALDEHYDE,70.09104,816.252517,151.559211,37328.4433,0.357624191,88.72,2.10550881,1.33048501,7.86264957,1.79806297,1.582512237,1.422772629
2067,C8H8O-D3,M-TOLUALDEHYDE,120.15092,1021.80242,187.198373,55864.8924,1.6628592,199,2.06203863,1.37310492,0.044990992,2.12125876,1.501734208,3.60712097
2068,C30H48O6,TRI-N-HEPTYL-TRIMELLITATE,504.70752,1096.79587,785.923016,140899.205,36.2295169,4.27E+02,0.377622342,0.342027969,1.44277E-10,0.015239236,1.104068603,13.64103753
2069,C4H10O2-D10,N-BUTYLHYDROPEROXIDE,ERROR,ERROR,ERROR,ERROR,ERROR,ERROR,ERROR,ERROR,ERROR,ERROR,ERROR,ERROR
2070,C7H14O2,ALLYL-TERT-BUTYLPEROXIDE,ERROR,ERROR,ERROR,ERROR,ERROR,ERROR,ERROR,ERROR,ERROR,ERROR,ERROR,ERROR
2071,LIH2PO4,MONOLITHIUM-PHOSPHATE,ERROR,ERROR,ERROR,ERROR,ERROR,ERROR,ERROR,ERROR,ERROR,ERROR,ERROR,ERROR
2072,C8H10O-D5,O-TOLUALCOHOL,122.1668,1029.47216,220.102905,63851.383,4.68094469,224,1.89198431,1.66128955,0.007923852,3.6349581,1.138864872,4.210146039
2073,C20H30O2-D1,NEOABIETIC-ACID,ERROR,ERROR,ERROR,ERROR,ERROR,ERROR,ERROR,ERROR,ERROR,ERROR,ERROR,ERROR
2074,C20H28O2,DEHYDROABIETIC-ACID,ERROR,ERROR,ERROR,ERROR,ERROR,ERROR,ERROR,ERROR,ERROR,ERROR,ERROR,ERROR
2075,C10H28N6,PENTAETHYLENE-HEXAMINE,232.37276,930.458709,497.793079,138266.229,34.0632155,3.86E+02,1.41034873,1.01241902,5.61241E-10,3.86388181,1.393048434,11.1183233
2076,C9H10O2-D1,ALPHA-METHYLBENZYL-FORMATE,150.1772,1050.83267,231.531725,56178.6482,2.13121935,203.85,1.65346765,1.29124161,0.041337285,2.0082588,1.280525377,3.640982346
2077,C6H14O2-D6,1-ISOPROPOXY-2-PROPANOL,118.17596,868.054476,217.176433,47344.5664,5.20081032,138,1.94023875,2.126706,0.666526137,5.16879633,0.912321097,2.239637312
2078,C7H14O3-D1,PG-ETHYL-ETHER-ACETATE,146.18636,945.853791,258.555626,52702.2139,1.25277581,164.85,1.18703715,0.95691413,0.19197816,1.29431662,1.240484504,3.034717075
2079,C39H72O5,DIOLEIN,620.99768,919.540787,1023.85999,195750.018,34.6642135,5.60E+02,0.291431934,0.291187712,7.07827E-17,0.004420754,1.00083871,20.41788624
2080,C4F8O,PENTAFLUOROETHYL-TRIFLUOROVINYL,ERROR,ERROR,ERROR,ERROR,ERROR,ERROR,ERROR,ERROR,ERROR,ERROR,ERROR,ERROR
2081,C3F6O-D1,PERFLUORO-METHYL-VINYL-ETHER,ERROR,ERROR,ERROR,ERROR,ERROR,ERROR,ERROR,ERROR,ERROR,ERROR,ERROR,ERROR
2082,C11H24O4,TRIPROPYLENE-GLYCOL-ETHYL-ETHER,220.30916,944.476772,379.51788,78703.2881,28.9786169,251.85,1.07163302,1.11517914,0.000315132,2.35943098,0.960951458,5.625181671
2083,C2H6O4S-D1,ETHYL-HYDROGEN-SULFATE,ERROR,ERROR,ERROR,ERROR,ERROR,ERROR,ERROR,ERROR,ERROR,ERROR,ERROR,ERROR
2084,CH3NAO,SODIUM-METHYLATE,ERROR,ERROR,ERROR,ERROR,ERROR,ERROR,ERROR,ERROR,ERROR,ERROR,ERROR,ERROR
2085,C6H6O3-N5,5-HYDROXYMETHYLFURFURAL,ERROR,ERROR,ERROR,ERROR,ERROR,ERROR,ERROR,ERROR,ERROR,ERROR,ERROR,ERROR
2086,CACL2O2,CALCIUM-HYPOCHLORITE,ERROR,ERROR,ERROR,ERROR,ERROR,ERROR,ERROR,ERROR,ERROR,ERROR,ERROR,ERROR
2087,C4H10O3-D2,"1,2,4-BUTANETRIOL",106.1216,1185.34577,338.499519,131695.959,192.796593,2.72E+02,11.3608351,16.4557306,1.03726E-07,1462.0979,0.690387767,7.484591375
2088,C8H9NO2-D1,"1,3-DIMETHYL-5-NITROBENZENE",151.165,1198.02827,205.567052,68114.6217,2.37540634,274,1.00749388,0.335187969,0.001085386,0.271111216,3.005757883,5.505693018
2089,NACLO,SODIUM-HYPOCHLORITE,ERROR,ERROR,ERROR,ERROR,ERROR,ERROR,ERROR,ERROR,ERROR,ERROR,ERROR,ERROR
2090,C6H7NO3S,SULFANILIC-ACID,ERROR,ERROR,ERROR,ERROR,ERROR,ERROR,ERROR,ERROR,ERROR,ERROR,ERROR,ERROR
2091,C2H8O7P2,1-HYDROXYETHANEDIPHOSPHONIC-ACID,ERROR,ERROR,ERROR,ERROR,ERROR,ERROR,ERROR,ERROR,ERROR,ERROR,ERROR,ERROR
2092,C18H24-N6,TRIAMANTANE,240.38856,1073.46027,346.08979,54839.559,10.078522,300.75,1.18921375,1.406702,0.011215572,3.07638685,0.845391384,4.059476187
2093,C17H32O2-N5,METHYL-PALMITOLEATE,268.43988,874.983393,511.746218,95490.7144,4.52870477,3.21E+02,0.537285575,0.553452787,5.49742E-06,0.224672672,0.970788453,8.100508062
2094,C15H22O2-N1,2-ETHYLHEXYL-BENZOATE,234.33848,961.193379,363.102773,78512.5279,6.33990864,296.5,0.717359055,0.6798803,0.000144012,0.443942412,1.05512552,6.475842365
2095,C3H2F4-N1,"TRANS-1,3,3,3-TETRAFLUORPROPENE",ERROR,ERROR,ERROR,ERROR,ERROR,ERROR,ERROR,ERROR,ERROR,ERROR,ERROR,ERROR
2096,C29H50O2,ALPHA-TOCOPHEROL,ERROR,ERROR,ERROR,ERROR,ERROR,ERROR,ERROR,ERROR,ERROR,ERROR,ERROR,ERROR
2097,C9H10O4-D1,SYRINGALDEHYDE,182.176,1314.75263,261.09578,86054.7319,59.0879454,3.20E+02,6.5152247,3.69062269,1.83927E-05,109.971701,1.765345647,5.710310285
2098,C9H10O3-D3,ETHYL-PHENYL-CARBONATE,ERROR,ERROR,ERROR,ERROR,ERROR,ERROR,ERROR,ERROR,ERROR,ERROR,ERROR,ERROR
2099,C16H22O4-N2,DIBUTYL-TEREPHTHALATE,278.34828,1055.90221,405.322103,97739.4869,15.9911296,3.45E+02,0.759384004,0.655614844,1.57343E-06,0.324431005,1.158277624,8.557815383
2100,C14H30O7,HEXAETHYLENE-GLYCOL-DIMETHYL-ETH,ERROR,ERROR,ERROR,ERROR,ERROR,ERROR,ERROR,ERROR,ERROR,ERROR,ERROR,ERROR
2101,C18H38O9,OCTAETHYLENE-GLYCOL-DIMETHYL-ETH,ERROR,ERROR,ERROR,ERROR,ERROR,ERROR,ERROR,ERROR,ERROR,ERROR,ERROR,ERROR
2102,C20H34O2,AGATHADIOL,ERROR,ERROR,ERROR,ERROR,ERROR,ERROR,ERROR,ERROR,ERROR,ERROR,ERROR,ERROR
2103,C20H34O2-N2,ETHYL-LINOLENATE,ERROR,ERROR,ERROR,ERROR,ERROR,ERROR,ERROR,ERROR,ERROR,ERROR,ERROR,ERROR
2104,C24H46O2-D1,ETHYL-ERUCATE,ERROR,ERROR,ERROR,ERROR,ERROR,ERROR,ERROR,ERROR,ERROR,ERROR,ERROR,ERROR
2105,C69H128O6,TRIERUCIN,1053.77172,894.914461,1853.11505,258085.549,74.9465797,6.60E+02,1.67E-01,0.175392129,1.43838E-23,1.57098E-05,0.950184355,29.33910144
2106,C9H8S,2-METHYL-BENZOTHIOPHENE,148.22852,1112.68383,188.751775,58361.9573,11.0073054,241.55,1.23836664,1.13426421,0.010918495,1.31991319,1.091779701,4.345142545
2107,C13H10S,4-METHYL-DIBENZOTHIOPHENE,ERROR,ERROR,ERROR,ERROR,ERROR,ERROR,ERROR,ERROR,ERROR,ERROR,ERROR,ERROR
2108,C26H78O11SI1,HEXACOSAMETHYL-DODECASILOXANE,903.92472,928.139257,1159.12799,116206.915,6.38169218,3.92E+02,0.370193317,0.385466059,3.39219E-08,14001.2385,0.960378504,5.358475849
2109,FNO,NITROSYL-FLUORIDE,ERROR,ERROR,ERROR,ERROR,ERROR,ERROR,ERROR,ERROR,ERROR,ERROR,ERROR,ERROR
2110,C14H12S,"4,6-DIMETHYLDIBENZOTHIOPHENE",ERROR,ERROR,ERROR,ERROR,ERROR,ERROR,ERROR,ERROR,ERROR,ERROR,ERROR,ERROR
2111,C6H8O4-D1,ACRYLOXY-PROPIONIC-ACID,144.12712,1195.24439,243.667214,76415.6869,8.89886718,260.65,2.73142193,2.4238096,0.00041982,4.21100936,1.126912745,5.58618551
2112,C9H20O-D3,4-METHYL-1-OCTANOL,144.2572,823.806865,298.525001,65315.993,9.32421156,204.75,1.18731994,1.38397081,0.011346695,2.17708474,0.857908224,4.197518664
2113,C9H18O-D2,2-METHYL-OCTANAL,142.24132,819.784506,284.629021,56892.4578,1.34570578,186.85,0.874265819,0.811558512,0.062809869,0.723778685,1.077267758,3.70082262
2114,C6H10O4-D5,ISOSORBIDE,146.143,1375.93256,263.427554,89094.6949,52.9822941,3.05E+02,8.34665242,7.91245507,1.60274E-05,428.657179,1.054875174,5.510475279
2115,C8H14O6SI,ETHYLSILANETRIOL-TRIACETATE,ERROR,ERROR,ERROR,ERROR,ERROR,ERROR,ERROR,ERROR,ERROR,ERROR,ERROR,ERROR
2116,C9H19NO3SI,3-TRIETHOXYSILYL-PROPIONITRILE,217.3403,969.245762,360.688065,68364.3817,1.57432913,238.91,1.0907389,0.857029324,0.003551517,1.30905147,1.272697292,4.714761476
2117,C9H20O5SI,GLYCIDOXYPROPYLTRIMETHOXYSILANE,236.3403,1066.36717,380.598291,77077.2976,3.23804396,261.85,1.47247051,1.43039619,0.00051947,8.26000169,1.029414452,4.972052587
2118,C11H24O4SI,GLYCIDOXYPROPYL-M-DITHOXYSILANE,248.39466,861.29,405.148005,76190.1538,2.93406407,266.6,0.840044268,0.734473449,0.00051374,0.675697144,1.14373674,5.774617036
2119,HNO5S,NITROSYLSULFURIC-ACID,ERROR,ERROR,ERROR,ERROR,ERROR,ERROR,ERROR,ERROR,ERROR,ERROR,ERROR,ERROR
2120,C6H10-D7,"TRANS-2-METHYL-1,3-PENTADIENE",82.1454,714.437499,177.455578,32862.88,0.24405919,76,0.955467631,0.997527876,15.2011859,1.00129738,0.957835519,1.265620951
2121,C9H20O5,TETRAETHYLENEGLYCOLMETHYLETHER,ERROR,ERROR,ERROR,ERROR,ERROR,ERROR,ERROR,ERROR,ERROR,ERROR,ERROR,ERROR
2122,C5H12CL2SI,3-CHLOROPROPYL-DIM-CHLOROSILANE,ERROR,ERROR,ERROR,ERROR,ERROR,ERROR,ERROR,ERROR,ERROR,ERROR,ERROR,ERROR
2123,C6H15CLO3SI,3-CHLOROPROPYL-TRIMETHOXY-SILANE,198.7215,1075.60639,276.492249,52951.7934,1.29181571,199,0.845035996,0.857661603,0.065638546,1.41499903,0.985279034,3.414537332
2124,C3H3CL5-N1,"1,1,3,3,3-PENTACHLOROPROPANE",216.32032,1571.23176,189.905272,50437.0592,1.63670606,178.35,1.141162,1.02569833,0.162941451,1.14264246,1.112570789,3.190214171
2125,C13H28O-D2,2-METHYL-DODECAN-1-OL,200.36472,971.811484,438.187963,89289.3169,15.1996561,2.66E+02,0.834779799,0.956471127,8.51827E-05,1.08752427,0.872770516,6.463018075
2126,C16H18O,BIS-ALPHA-METHYLBENZYL-ETHER,226.31832,998.94286,353.347221,75653.9417,4.58333587,286.3,0.918517303,0.906872287,0.000362912,1.14502807,1.012840856,5.788065659
2127,C22H44-D1,1-DOCOSENE,308.59136,787.858002,607.719563,100740.263,7.96672963,3.67E+02,0.476226538,0.563168323,6.73512E-07,0.240082205,0.84562025,8.991069064
2128,C24H48-D1,1-TETRACOSENE,336.64512,801.609253,661.632221,108543.32,10.8242432,3.90E+02,0.445938763,0.5284278,9.89066E-08,0.186210255,0.843897242,9.906893132
2129,C26H52-N10,1-HEXACOSENE,364.69888,805.291219,714.977218,115996.761,14.4343858,4.11E+02,0.41917481,0.497581631,1.58172E-08,0.143506447,0.842424205,10.78999916
2130,C28H56-N2,1-OCTACOSENE,392.75264,808.537441,767.804045,123175.164,18.8901896,4.30E+02,0.395373073,0.470038473,2.74605E-09,0.109991799,0.84115045,11.64120148
2131,C30H60,1-TRIACONTENE,420.8064,802.959721,819.091303,129558.533,22.3156801,4.48E+02,0.37408046,0.445313656,5.52345E-10,0.083904967,0.840038151,12.43180444
2132,C36H72-D1,1-HEXATRIACONTENE,ERROR,ERROR,ERROR,ERROR,ERROR,ERROR,ERROR,ERROR,ERROR,ERROR,ERROR,ERROR
2133,C40H80,1-TETRACONTENE,561.0752,820.452387,1025.36578,167824.365,23.2899122,5.23E+02,0.294428118,0.352151847,7.66746E-14,0.02054125,0.836082845,16.79858781
2134,C12H26O5,TETRAETHYLENE-GLYCOL-BUTYL-ETHER,250.33544,1005.02253,409.764782,86945.0743,12.1042105,3.04E+02,1.18422856,1.13610535,1.71024E-05,4.23260444,1.042358052,6.644889373
2135,C24H38O4-D4,DI-2-ETHYLHEXYL-TEREPHTHALATE,390.56332,979.264401,731.434603,166300.191,63.250903,4.00E+02,0.46148766,0.428702336,1.42049E-11,0.067080181,1.07647573,14.10225943
2136,C9H20O-D4,6-METHYL-1-OCTANOL,144.2572,831.108614,306.043494,67196.4871,9.32421156,206,1.18731994,1.38397081,0.008959949,2.17708474,0.857908224,4.300082538
2137,C9H20O-D5,3-ETHYL-1-HEPTANOL,144.2572,832.194315,317.122181,69948.583,9.32421156,207,1.18731994,1.38397081,0.006619089,2.17708474,0.857908224,4.43158986
2138,C9H12O-N7,1-P-TOLYLETHANOL,136.19368,986.964851,231.503016,64890.7482,12.7367553,219,1.611003,1.48710745,0.008198689,3.02196375,1.083313112,4.227445156
2139,C7H10O4-N2,ALLYLIDENE-DIACETATE,ERROR,ERROR,ERROR,ERROR,ERROR,ERROR,ERROR,ERROR,ERROR,ERROR,ERROR,ERROR
2140,C9H22O3SSI,3-MERCAPTOPROPYL-TRIETHOXYSILANE,238.42338,983.042852,342.220322,65372.0428,1.58551074,225.65,0.768715424,0.637757989,0.006021656,0.43965221,1.205340329,4.830967158
2141,C6H16O3SSI,3-TRIMETHOXYSILYL-1-PROPANETHIOL,196.34274,1053.73777,264.914307,57299.572,2.00165391,214,1.29756532,0.933743101,0.022432509,1.32502224,1.389638455,3.946262848
2142,C9H20O4-D1,TRIETHYLENE-GLYCOL-N-PROPYL-ETHE,192.2554,994.695258,288.513694,70863.6577,8.99423716,265.35,1.55469789,1.51295415,0.000515415,6.01250425,1.027590882,5.137750057
2143,C6H12O2-D9,PROPYLENE-GLYCOL-MONOALLYL-ETHER,116.16008,916.549972,234.247346,53329.2708,4.99940173,155,1.89417703,1.84734771,0.250725036,4.58526356,1.025349489,2.655123101
2144,C18H22-N10,"4,4--DIISOPROPYLBIPHENYL",238.37268,956.032167,370.240348,80975.91,12.5577573,3.35E+02,0.743426495,0.775322758,3.46459E-05,0.746694734,0.958860665,6.925823658
2145,C9H18O2-D4,2-METHYLOCTANOIC-ACID,158.24072,896.86224,316.133718,75808.4878,5.98202197,245,1.14055262,1.27855488,0.000915758,1.40620535,0.892063874,5.446026449
2146,C10H10O5,ETHYLENE-TEREPHTHALATE,210.1864,1164.35955,285.074651,114617.712,863.455932,3.84E+02,4.88024737,4.74772664,7.78951E-08,52.0731304,1.02791246,8.517498595
2147,C10H10O-D1,"3,5-DIMETHYLBENZOFURAN",ERROR,ERROR,ERROR,ERROR,ERROR,ERROR,ERROR,ERROR,ERROR,ERROR,ERROR,ERROR
2148,C10H10S,"2,7-DIMETHYLBENZOTHIOPHENE",ERROR,ERROR,ERROR,ERROR,ERROR,ERROR,ERROR,ERROR,ERROR,ERROR,ERROR,ERROR
2149,C10H10S-D2,"2,3-DIMETHYLBENZOTHIOPHENE",162.2554,1104.34694,221.826086,65938.9622,12.6586666,264.85,0.996060366,0.95876585,0.001898166,1.00876194,1.038898461,5.148726042
2150,C10H10S-D3,3-ETHYLBENZO[B]THIOPHENE,162.2554,1095.6347,216.568875,62628.0163,13.9493553,258.35,1.09286179,0.959299103,0.003478214,1.04241163,1.139229451,4.87169492
2151,C10H10S-D4,"3,5-DIMETHYLBENZO[B]THIOPHENE",162.2554,1094.2058,227.917304,64670.4425,12.9399836,264.06,0.87774998,0.704332912,0.002635346,0.593530207,1.246214631,5.102634033
2152,C10H14O2-D1,N-BUTYLBENZENE-HYDROPEROXIDE,166.21996,1034.96088,317.501598,96391.0736,20.8874618,3.02E+02,1.70711785,1.57995423,6.92348E-06,4.50713773,1.080485635,7.153555468
2153,C10H14O-D1,1-METHYL-3-METHYLETHOXY-BENZENE,150.22056,924.287111,253.918245,56080.3904,1.30726684,196.5,0.945749714,0.935734251,0.058932036,1.01121738,1.01070332,3.645093018
2154,C10H14O-D3,5-METHYL-3-METHYLETHYL-PHENOL,150.22056,910.399594,273.72133,72399.6526,8.56744252,241,1.04999926,0.859048359,0.001652225,0.842006557,1.222281899,5.239769378
2155,C10H14O-D4,3-METHYL-4-METHYLETHYL-PHENOL,150.22056,902.562012,256.28449,64414.9758,8.39810562,238,1.04999926,0.859048359,0.005782029,0.842006557,1.222281899,4.695758327
2156,C10H20-D7,"TRANS-1,4-DIETHYLCYCLOHEXANE",140.2688,797.682478,253.890773,49125.2636,1.23202979,176.25,0.888611946,1.11617901,0.190304418,1.26434321,0.796119563,3.11555646
2157,C10H20O2-D6,"CIS-1,8-TERPIN",ERROR,ERROR,ERROR,ERROR,ERROR,ERROR,ERROR,ERROR,ERROR,ERROR,ERROR,ERROR
2158,C10H20O2-D7,"TRANS-1,8-TERPIN",ERROR,ERROR,ERROR,ERROR,ERROR,ERROR,ERROR,ERROR,ERROR,ERROR,ERROR,ERROR
2159,C10H20O4-D1,HYDROXYPIVALYL-HYDROXYPIVALATE,204.2664,1050.86795,277.903098,68573.8938,792.282678,292,1.68969781,1.74658365,0.000220658,11.8559265,0.967430223,5.273669779
2160,C10H22O3-D2,1T-BUTOXY-2HYDROXY-PROPOXYPROPAN,190.28288,915.216082,382.58518,82950.4369,2.0159831,254.85,1.20437665,1.25737342,0.000254709,2.951275,0.957851209,5.672546435
2161,C10H24N4-D1,"1,4-PIPERAZINEDIPROPANAMINE",ERROR,ERROR,ERROR,ERROR,ERROR,ERROR,ERROR,ERROR,ERROR,ERROR,ERROR,ERROR
2162,C11H12O5,HYDROXYETHYLMETHYLTEREPHTHALAT,224.21328,1121.96168,293.717919,96870.4787,91.9822479,3.47E+02,2.35145201,1.98134216,1.8388E-06,6.50350547,1.186797544,7.668413109
2163,C11H12S,2-PROPYLBENZOTHIOPHENE,ERROR,ERROR,ERROR,ERROR,ERROR,ERROR,ERROR,ERROR,ERROR,ERROR,ERROR,ERROR
2164,C11H16-D4,"1,2,3-TRIMETHYL-4-ETHYLBENZENE",148.24804,898.103493,269.035919,58477.0901,1.97849979,220.4,0.712788967,0.650164596,0.018853488,0.416911411,1.096320795,4.366724279
2165,C11H16O2-D1,PG-ALPHA-METHOXYBENZYL-ETHER,180.24684,1006.86501,327.418253,68498.3274,12.5150232,253.15,1.47273398,1.42382585,0.001850093,3.63138873,1.034349798,4.775327084
2166,C11H16O2-D2,2-ALPHA-METHOXYBENZYL-1-PROPANOL,180.24684,1106.22806,317.845344,71046.5448,14.038765,255.85,1.36075644,1.34925682,0.001241874,2.90661873,1.008522929,5.021765368
2167,C11H24O3,"1,3-DI-TERT-BUTYL-GLYCERIN",204.30976,888.524035,371.973797,63983.8331,16.2705297,221,1.07267111,1.12844812,0.009314619,2.33436712,0.950571932,4.16428382
2168,C11H24O6SI,TRIS-2-METHOXYETHOXY-VINYLSILANE,280.39346,1036.35288,414.140939,74667.3555,2.44261589,277.1,1.23632041,0.943908514,0.000434648,2.81314338,1.309788387,5.336736449
2169,C12H14S,2-BUTYLBENZOTHIOPHENE,ERROR,ERROR,ERROR,ERROR,ERROR,ERROR,ERROR,ERROR,ERROR,ERROR,ERROR,ERROR
2170,C12H16-D3,METHYLCYCLOPENTADIENE-DIMER,160.25904,947.15526,260.875792,53611.1017,1.29610707,199.85,1.00410727,1.2370991,0.061474496,1.6018069,0.81166276,3.548235811
2171,C12H16-D4,5-O-TOLYL-2-PENTENE,160.25904,887.198848,265.728542,59619.1328,1.40616783,226.85,0.808029182,0.776185562,0.013748378,0.674983667,1.041025782,4.371557295
2172,C12H16-N44,"1,1,5-TRIMETHYLINDAN",160.25904,911.119748,232.252329,52307.0832,1.62449923,218.75,0.852251335,0.903064155,0.042632302,0.939987933,0.943732879,3.801994003
2173,C12H22O11-D1,CELLOBIOSE,ERROR,ERROR,ERROR,ERROR,ERROR,ERROR,ERROR,ERROR,ERROR,ERROR,ERROR,ERROR
2174,C12H24BR2,"1,2-DIBROMODODECANE",328.13056,1390.86775,310.881101,61429.7255,6.24684536,359.85,0.764892491,0.844759134,0.000193301,0.805139094,0.905456313,6.183763831
2175,C12H26O5-D1,TETRAPROPYLENE-GLYCOL,ERROR,ERROR,ERROR,ERROR,ERROR,ERROR,ERROR,ERROR,ERROR,ERROR,ERROR,ERROR
2176,C12H30O6S2SI,BIS-TRIMETHOXYSILYLPROPYL-DISULF,390.6696,1123.28534,539.502888,101645.953,17.0032532,3.26E+02,0.175240225,0.024437636,1.70474E-06,0.046797202,7.170915591,7.935317702
2177,C13H20-N8,"3,5-DIISOPROPYL-TOLUENE",176.3018,860.010446,304.09449,57810.8679,1.97594429,217.5,0.729158564,0.756681068,0.02310079,0.637174985,0.963627339,4.160163784
2178,C13H28O-D1,2-BUTYL-NONAN-1-OL,200.36472,832.440227,440.22547,89101.4734,18.6346721,2.65E+02,0.834779799,0.956471127,8.18922E-05,1.08752427,0.872770516,6.480126941
2179,C14H18O8,DI-1-GLYCERYL-TEREPHTHALATE,314.29212,1056.10703,551.017483,183463.812,296.096277,4.42E+02,3.65153739,3.69556114,6.02699E-14,2502.57947,0.988087398,12.83832886
2180,C14H30-D1,3-ETHYLDODECANE,ERROR,ERROR,ERROR,ERROR,ERROR,ERROR,ERROR,ERROR,ERROR,ERROR,ERROR,ERROR
2181,C14H30O3,1TBUTOXY-2TBUTOXY-PROPOXYPROPANE,246.3904,1112.70107,440.810473,71737.2355,8.11650385,282.25,0.65396832,0.712532084,0.000615627,0.560729747,0.917808945,5.76386992
2182,C14H30O-D2,2-METHYL-1-TRIDECANOL,214.3916,826.269748,468.344721,96022.6823,21.7421297,2.90E+02,0.777967586,0.889144502,1.30759E-05,0.917846163,0.874961926,7.318867729
2183,C15H16O2-D1,"O,P-BISPHENOL-A",228.29084,1040.78568,479.338292,1.57E+05,15.332823,3.61E+02,1.46123803,1.17E+00,3.01602E-10,2.06651804,1.249944168,11.72229336
2184,C15H30-D1,TRANS-2-PENTADECENE,210.4032,783.980384,414.636025,70677.7464,2.21270805,263.85,0.62904775,0.747750496,0.00117923,0.587910239,0.841253538,5.48198373
2185,C15H32O6-D1,PENTAPROPYLENE-GLYCOL,ERROR,ERROR,ERROR,ERROR,ERROR,ERROR,ERROR,ERROR,ERROR,ERROR,ERROR,ERROR
2186,C16H30-D1,"NAPHTHALENE,-2-HEXYLDECAHYDRO-",ERROR,ERROR,ERROR,ERROR,ERROR,ERROR,ERROR,ERROR,ERROR,ERROR,ERROR,ERROR