Index,Solvent,cname,MW,RHO,CP,HV,MU,BP,GAMMA1,GAMMA2,VP,GAMMAS,S,alpha
2187,C16H34O8,HEPTAETHYLENE-GLYCOL-DIMETHYL-ET,ERROR,ERROR,ERROR,ERROR,ERROR,ERROR,ERROR,ERROR,ERROR,ERROR,ERROR,ERROR
2188,C18H22-D1,1-4-ETHYLPHENYL-2-4-ETHYLPHENYL,238.37268,1050.16502,359.123657,74306.8767,27.1142064,305.95,0.684609182,0.650245805,0.000198201,0.461301857,1.052846749,6.301121895
2189,C18H42O6S2SI,BIS-3ETHOXYSILYLPROPLY-DISULFANE,474.83088,1051.867,617.308633,103192.218,2.6081919,4.58E+02,0.110742889,0.021205777,2.84138E-08,0.003715879,5.222298029,10.75199933
2190,C20H30O2-D4,PALUSTRIC-ACID,ERROR,ERROR,ERROR,ERROR,ERROR,ERROR,ERROR,ERROR,ERROR,ERROR,ERROR,ERROR
2191,C20H32O2,ISOAGATHOLAL,ERROR,ERROR,ERROR,ERROR,ERROR,ERROR,ERROR,ERROR,ERROR,ERROR,ERROR,ERROR
2192,C20H40-D2,TRANS-2-EICOSENE,280.5376,806.598376,547.448274,87381.3765,4.93494599,3.19E+02,0.515790361,0.616087258,2.16131E-05,0.332902922,0.837203423,7.381744449
2193,C20H42O10,NONAETHYLENE-GLYCOL-DIMETHYL-ETH,ERROR,ERROR,ERROR,ERROR,ERROR,ERROR,ERROR,ERROR,ERROR,ERROR,ERROR,ERROR
2194,C22H28-D1,TETRAMANTANE,292.46432,1101.32493,399.786059,61794.6512,6.58210415,346.75,1.13369061,1.32631889,0.000968303,3.70065982,0.854764732,5.017494068
2195,C24H38O4-D3,HEPTYL-NONYL-PHTHALATE,390.56332,1004.73051,610.410759,119696.279,22.9463281,4.14E+02,0.461107084,0.428425986,6.28339E-09,0.066866141,1.076281783,11.45761219
2196,C26H42O4-D2,HEPTYL-UNDECYL-PHTHALATE,418.61708,995.02199,647.211216,120683.029,287.771226,4.44E+02,0.423233428,0.398498678,2.2834E-09,0.046506849,1.062069842,12.02346359
2197,C28H46O4-D2,N-NONYL-N-UNDECYL-PHTHALATE,446.67084,1126.86564,684.328689,118151.863,4750.85372,4.71E+02,0.391920939,0.373456037,1.84183E-09,0.032577348,1.049443308,12.24321178
2198,C3H7NO2-D3,AMMONIUM-ACRYLATE,ERROR,ERROR,ERROR,ERROR,ERROR,ERROR,ERROR,ERROR,ERROR,ERROR,ERROR,ERROR
2199,C3H8S2,ETHYL-METHYL-DISULFIDE,108.22852,1015.7551,145.973065,39873.5003,6.28E-01,134,0.004969464,1.0895E-05,1.55623834,0.035560188,456.1224351,-1.25667555
2200,C40H62O19,SUCROSE-ACETATE-ISOBUTYRATE,ERROR,ERROR,ERROR,ERROR,ERROR,ERROR,ERROR,ERROR,ERROR,ERROR,ERROR,ERROR
2201,C4H10N2O3,N-NITROSODIETHANOLAMINE,ERROR,ERROR,ERROR,ERROR,ERROR,ERROR,ERROR,ERROR,ERROR,ERROR,ERROR,ERROR
2202,C4H10O3-D1,"1,2,3-BUTANETRIOL",106.1216,985.03526,336.4243,135065.644,172.229645,2.87E+02,11.3796169,16.4896454,3.1401E-08,1463.21266,0.690106829,8.004096748
2203,C4H10O4S-D1,MONOBUTYL-SULFATE,ERROR,ERROR,ERROR,ERROR,ERROR,ERROR,ERROR,ERROR,ERROR,ERROR,ERROR,ERROR
2204,C4H12N2O-D1,BIS-2-AMINOETHYL-ETHER,104.15216,705.01048,241.660087,67489.1456,1.91621036,184,2.81536904,2.45351641,0.020141936,7.73961257,1.147483273,3.646104999
2205,C4H12NOCL-D1,3-METHOXYISOPROPYLAMINEHYDROCHLO,ERROR,ERROR,ERROR,ERROR,ERROR,ERROR,ERROR,ERROR,ERROR,ERROR,ERROR,ERROR
2206,C4H12NOCL-D2,3-METHOXYPROPYLAMINEHYDROCHLORID,ERROR,ERROR,ERROR,ERROR,ERROR,ERROR,ERROR,ERROR,ERROR,ERROR,ERROR,ERROR
2207,C4H6O3-D2,ACETOACETIC-ACID,102.08984,1174.36247,189.182911,70094.042,3.2068476,205.05,9.8932046,8.46911386,0.006414053,21.9162792,1.168151092,4.229075085
2208,C4H6O4-D1,ACETOXYACETIC-ACID,118.08924,1455.07569,197.409307,80386.0699,8.30137527,268.85,10.4588056,8.67885531,0.000194254,13.5701658,1.205090444,5.966643044
2209,C4H7NO-D3,CYCLOPROPANECARBOXAMIDE,85.10572,1250.17547,161.290546,73340.0522,32.8131316,255.15,1.77151789,1.50556894,0.001014175,1.58728475,1.176643489,5.420069448
2210,C4H8O2S-D1,METHYL-3-MERCAPTOPROPIONATE,120.17232,1091.54767,190.713764,49764.3218,1.18916006,160.95,1.76572251,1.18459478,0.283000178,1.26172463,1.490570902,2.969954985
2211,C4H9NO2-N14,"PROPANAMIDE,-2-HYDROXY-2-METHYL",ERROR,ERROR,ERROR,ERROR,ERROR,ERROR,ERROR,ERROR,ERROR,ERROR,ERROR,ERROR
2212,C5H10NNAS2,SODIUM-DIETHYLDITHIOCARBAMATE,ERROR,ERROR,ERROR,ERROR,ERROR,ERROR,ERROR,ERROR,ERROR,ERROR,ERROR,ERROR
2213,C5H10O5-D1,ARABINOSE,ERROR,ERROR,ERROR,ERROR,ERROR,ERROR,ERROR,ERROR,ERROR,ERROR,ERROR,ERROR
2214,C5H10O5-D2,XYLOSE,ERROR,ERROR,ERROR,ERROR,ERROR,ERROR,ERROR,ERROR,ERROR,ERROR,ERROR,ERROR
2215,C5H6O3-D1,VINYLETHYLENE-CARBONATE,ERROR,ERROR,ERROR,ERROR,ERROR,ERROR,ERROR,ERROR,ERROR,ERROR,ERROR,ERROR
2216,C6H10-D5,"3-METHYL-1,4-PENTADIENE",82.1454,690.022909,168.999081,29089.3054,0.23201321,52.85,0.978027111,0.961510169,37.0267199,0.952310343,1.017178125,0.8847966
2217,C6H10O2-D7,N-CROTYL-ACETATE,114.1442,910.983752,200.542236,44942.5659,0.590012939,130.5,1.28261015,1.02723897,1.1543205,1.02794736,1.248599583,2.386510663
2218,C6H12O2-D7,CROTYL-GLYCOL-ETHER,116.16008,929.748003,230.51643,58813.3738,7.28348077,179.95,1.92395817,1.93161744,0.060081209,4.78440992,0.996034789,3.276490533
2219,C6H12O2-D8,SEC-BUTENYL-GLYCOL-ETHER,116.16008,910.226974,261.759661,60245.8472,3.22097559,154.25,1.89417703,1.84734771,0.137128254,4.58526356,1.025349489,2.917193857
2220,C6H12O3-D3,"2,4-DIMETHYL-1,3-DIOXOLANE-2-MET",ERROR,ERROR,ERROR,ERROR,ERROR,ERROR,ERROR,ERROR,ERROR,ERROR,ERROR,ERROR
2221,C6H12O3-D4,METHYL-ALPHA-METHOXYISOBUTYRATE,ERROR,ERROR,ERROR,ERROR,ERROR,ERROR,ERROR,ERROR,ERROR,ERROR,ERROR,ERROR
2222,C6H14N2O-D1,6-AMINOHEXANAMIDE,130.19004,917.377121,261.689905,86138.9069,39.8334421,3.08E+02,1.57478246,1.39644475,2.6717E-05,2.29173595,1.127708389,6.807208657
2223,C7H10S-D1,"2,3,5-TRIMETHYLTHIOPHENE",ERROR,ERROR,ERROR,ERROR,ERROR,ERROR,ERROR,ERROR,ERROR,ERROR,ERROR,ERROR
2224,C7H11CL3O2SI,METHACRYLOXYPROPYLTRICHLOROSILAN,ERROR,ERROR,ERROR,ERROR,ERROR,ERROR,ERROR,ERROR,ERROR,ERROR,ERROR,ERROR
2225,C7H12O6SI,METHYLSILANETRIOL-TRIACETATE,ERROR,ERROR,ERROR,ERROR,ERROR,ERROR,ERROR,ERROR,ERROR,ERROR,ERROR,ERROR
2226,C7H12O-D1,"1,2,3,6-TETRAHYDROBENZYL-ALCOHOL",112.17168,951.937199,212.174186,58860.7291,14.1911479,204.44,1.6442087,1.79106723,0.030617175,3.16879614,0.918005015,3.715388934
2227,C7H14O3-D2,2-PROPANOL-1-METHOXY-PROPANOATE,146.18636,947.047951,276.090413,54294.3632,1.09696543,163.15,1.18313253,0.960207462,0.181562433,1.44745221,1.232163441,3.011871309
2228,C7H15NO2-D1,4-2-METHOXYETHYL-MORPHOLINE,145.20164,1060.77788,265.072542,58324.5908,1.40089581,193.87,2.24724156,2.48230117,0.042809785,6.66644511,0.905305765,3.388553578
2229,C8H12S,"3-ETHYL-2,5-DIMETHYLTHIOPHENE",140.24928,1076.6882,192.620909,50618.1226,0.279657112,183,0.870848472,0.89782792,0.134880706,0.855438679,0.969950313,3.340190853
2230,C8H14O2-D3,2-OXOLAN-2-YLOXOLANE,ERROR,ERROR,ERROR,ERROR,ERROR,ERROR,ERROR,ERROR,ERROR,ERROR,ERROR,ERROR
2231,C8H14O3-D2,T-BUTYL-ACETOACETATE,158.19736,965.471386,263.313579,56583.6335,2.20030905,184.5,1.38527409,1.05247407,0.0662857,1.21702914,1.316207334,3.56462704
2232,C8H16-D11,3-ETHYL-1-HEXENE,112.21504,711.589637,227.274398,38219.4895,0.452353644,110.5,0.866182172,0.986707567,3.73727741,0.999238517,0.877850947,1.871100417
2233,C8H16-D12,4-METHYL-1-HEPTENE,112.21504,712.868401,228.10486,38475.9232,0.452353644,112.8,0.866182172,0.986707567,3.4212177,0.999238517,0.877850947,1.909475043
2234,C8H16O2-D7,"TETRAMETHYL-1,3-CYCLOBUTANEDIOL",ERROR,ERROR,ERROR,ERROR,ERROR,ERROR,ERROR,ERROR,ERROR,ERROR,ERROR,ERROR
2235,C8H16O3-D1,4-HYDROXYBUTOXYTETRAHYDROFURAN,160.21324,949.568228,301.930102,83343.7719,1.73153768,246.85,1.87120773,1.88894876,0.000290059,6.12681322,0.990607988,5.475635023
2236,C8H16O-D1,ETHYL-ISOAMYL-KETONE,128.21444,818.32432,274.049341,52428.9529,0.803920455,158.25,0.932884231,0.878504786,0.260078054,0.814370144,1.061899999,3.066955042
2237,C8H16O-D4,4-METHYL-CYCLOHEXANE-METHANOL,128.21444,906.987983,288.858974,65724.4638,29.6897623,189.94,1.51779255,1.79167034,0.021091488,3.04798117,0.847138291,3.894275063
2238,C8H16O-D5,2-METHYLHEPTANAL,128.21444,815.624417,273.417871,52934.8394,1.01843097,156,0.945409003,0.855503806,0.261127142,0.826950356,1.105090353,3.047026952
2239,C8H18N2O2-D1,4-2-2-AMINOETHOXYETHYLMORPHOLINE,ERROR,ERROR,ERROR,ERROR,ERROR,ERROR,ERROR,ERROR,ERROR,ERROR,ERROR,ERROR
2240,C8H8O3-D2,4-HYDROXYMETHYL-BENZOIC-ACID,152.14972,1160.6224,274.187746,126564.011,1324.07322,3.42E+02,5.28913212,4.96217583,6.90708E-08,41.4397054,1.065889703,8.688097727
2241,C8H9CL-D1,3-CHLORO-O-XYLENE,140.61216,1048.71399,191.827091,50706.1581,2.77353466,188.5,1.00867274,0.948733776,0.115294978,1.17265208,1.063177854,3.295301253
2242,C8H9CL-D2,4-CHLORO-O-XYLENE,140.61216,1053.32394,193.943133,51210.8761,2.70947591,192.5,1.00867274,0.948733776,0.097732537,1.17265208,1.063177854,3.36707247
2243,C9H10O-D1,P-ISOPROPENYL-PHENOL,134.1778,1268.07542,238.201855,69484.8106,16.5844557,240.55,1.41742014,1.1687531,0.002607624,1.38343957,1.212762678,4.959654116
2244,C9H10S,2-METHYL-THIAINDAN,150.2444,1082.29408,204.927639,56680.1687,2.27847981,248.65,0.253947543,0.045715522,0.010516304,0.530227764,5.55495224,3.362874566
2245,C9H12O2-D1,N-PROPYLBENZENE-HYDROPEROXIDE,152.19308,1015.80566,288.629332,90607.1699,18.8071061,2.82E+02,1.70711785,1.57995423,3.07008E-05,4.50713773,1.080485635,6.5067303
2246,C9H14O2,OCTAHYDRO-PENTALENE-1-CARBOXYLIC,154.20896,1185.05383,239.872584,79194.3487,11.4374256,3.04E+02,1.99223113,2.24326425,7.7766E-05,2.69949239,0.888094717,6.477944815
2247,C9H18O-D5,3-ETHYL-1-HEPTANAL,142.24132,775.655002,268.571376,51572.4106,1.34570578,180.35,0.874265819,0.811558512,0.127776031,0.723778685,1.077267758,3.392401114
2248,C9H20O3-D1,2-2-PENTOXYETHOXY-ETHANOL,176.256,939.877539,370.825881,83808.7919,5.67756443,246.35,1.37335794,1.42123504,0.000380284,3.77041521,0.966313032,5.445305438
2249,CACL2-15,CALCIUM-CHLORIDE-15-WT-%,ERROR,ERROR,ERROR,ERROR,ERROR,ERROR,ERROR,ERROR,ERROR,ERROR,ERROR,ERROR
2250,CACL2-25,CALCIUM-CHLORIDE-25-WT%,ERROR,ERROR,ERROR,ERROR,ERROR,ERROR,ERROR,ERROR,ERROR,ERROR,ERROR,ERROR
2251,CALFLO-AF,CALFLO-AF,ERROR,ERROR,ERROR,ERROR,ERROR,ERROR,ERROR,ERROR,ERROR,ERROR,ERROR,ERROR
2252,CALFLO-HTF,CALFLO-HTF,ERROR,ERROR,ERROR,ERROR,ERROR,ERROR,ERROR,ERROR,ERROR,ERROR,ERROR,ERROR
2253,CHEM550,CHEMTHERM-550,ERROR,ERROR,ERROR,ERROR,ERROR,ERROR,ERROR,ERROR,ERROR,ERROR,ERROR,ERROR
2254,CO3C,COBALT-CARBIDE,ERROR,ERROR,ERROR,ERROR,ERROR,ERROR,ERROR,ERROR,ERROR,ERROR,ERROR,ERROR
2255,DOWA,DOWTHERM-A,ERROR,ERROR,ERROR,ERROR,ERROR,ERROR,ERROR,ERROR,ERROR,ERROR,ERROR,ERROR
2256,DOWG,DOWTHERM-G,ERROR,ERROR,ERROR,ERROR,ERROR,ERROR,ERROR,ERROR,ERROR,ERROR,ERROR,ERROR
2257,DOWJ,DOWTHERM-J,134.22116,866.81768,232.909896,51180.167,0.85098978,181.384,0.88877022,0.896506472,0.141502472,0.909727721,0.991370668,3.292014434
2258,DOWMX,DOWTHERM-MX,238.37268,944.436709,387.889948,79191.7286,16.278595,3.28E+02,0.743426495,0.775322758,1.34026E-05,0.746694734,0.958860665,7.338285405
2259,DOWQ,DOWTHERM-Q,ERROR,ERROR,ERROR,ERROR,ERROR,ERROR,ERROR,ERROR,ERROR,ERROR,ERROR,ERROR
2260,DOWRP,DOWTHERM-RP,236.3568,1030.71618,351.364696,85065.6523,31.4479272,3.53E+02,0.866736255,0.894181722,1.03224E-05,1.10123711,0.969306611,7.34489927
2261,DOWT,DOWTHERM-T,318,867.659631,613.571435,88817.7866,24.1710192,3.61E+02,0.478761203,0.546862688,1.51036E-06,0.2269787,0.875468767,8.651947793
2262,EGLY-20,ETHYLENE-GLYCOL-20-WT-%,ERROR,ERROR,ERROR,ERROR,ERROR,ERROR,ERROR,ERROR,ERROR,ERROR,ERROR,ERROR
2263,EGLY-40,ETHYLENE-GLYCOL-40-WT-%,ERROR,ERROR,ERROR,ERROR,ERROR,ERROR,ERROR,ERROR,ERROR,ERROR,ERROR,ERROR
2264,EGLY-60,ETHYLENE-GLYCOL-60-WT-%,ERROR,ERROR,ERROR,ERROR,ERROR,ERROR,ERROR,ERROR,ERROR,ERROR,ERROR,ERROR
2265,H2-PARA,HYDROGEN-PARA,ERROR,ERROR,ERROR,ERROR,ERROR,ERROR,ERROR,ERROR,ERROR,ERROR,ERROR,ERROR
2266,H2S2O3,THIOSULFURIC-ACID,ERROR,ERROR,ERROR,ERROR,ERROR,ERROR,ERROR,ERROR,ERROR,ERROR,ERROR,ERROR
2267,MARLO-S,MARLOTHERM-S,ERROR,ERROR,ERROR,ERROR,ERROR,ERROR,ERROR,ERROR,ERROR,ERROR,ERROR,ERROR
2268,MBL603,MOBILTHERM-603,ERROR,ERROR,ERROR,ERROR,ERROR,ERROR,ERROR,ERROR,ERROR,ERROR,ERROR,ERROR
2269,MBL605,MOBILTHERM-605,ERROR,ERROR,ERROR,ERROR,ERROR,ERROR,ERROR,ERROR,ERROR,ERROR,ERROR,ERROR
2270,MBLLIGHT,MOBILTHERM-LIGHT,ERROR,ERROR,ERROR,ERROR,ERROR,ERROR,ERROR,ERROR,ERROR,ERROR,ERROR,ERROR
2271,NABO3,SODIUM-PERBORATE,ERROR,ERROR,ERROR,ERROR,ERROR,ERROR,ERROR,ERROR,ERROR,ERROR,ERROR,ERROR
2272,NAC5H8NO4,MONOSODIUM-GLUTAMATE,ERROR,ERROR,ERROR,ERROR,ERROR,ERROR,ERROR,ERROR,ERROR,ERROR,ERROR,ERROR
2273,PGLY-20,PROPYLENE-GLYCOL-20-WT-%,ERROR,ERROR,ERROR,ERROR,ERROR,ERROR,ERROR,ERROR,ERROR,ERROR,ERROR,ERROR
2274,PGLY-60,PROPYLENE-GLYCOL-60-WT-%,ERROR,ERROR,ERROR,ERROR,ERROR,ERROR,ERROR,ERROR,ERROR,ERROR,ERROR,ERROR
2275,P-R,PHOSPHORUS-RED,ERROR,ERROR,ERROR,ERROR,ERROR,ERROR,ERROR,ERROR,ERROR,ERROR,ERROR,ERROR
2276,R502,REFRIGERANT-502,ERROR,ERROR,ERROR,ERROR,ERROR,ERROR,ERROR,ERROR,ERROR,ERROR,ERROR,ERROR
2277,R503,REFRIGERANT-503,ERROR,ERROR,ERROR,ERROR,ERROR,ERROR,ERROR,ERROR,ERROR,ERROR,ERROR,ERROR
2278,SYL800,SYLTHERM-800,ERROR,ERROR,ERROR,ERROR,ERROR,ERROR,ERROR,ERROR,ERROR,ERROR,ERROR,ERROR
2279,SYL-XLT,SYLTHERM-XLT,ERROR,ERROR,ERROR,ERROR,ERROR,ERROR,ERROR,ERROR,ERROR,ERROR,ERROR,ERROR
2280,SYN350,SYNTREL-350,ERROR,ERROR,ERROR,ERROR,ERROR,ERROR,ERROR,ERROR,ERROR,ERROR,ERROR,ERROR
2281,TEGLY-40,TRIETHYLENE-GLYCOL-40-WT-%,ERROR,ERROR,ERROR,ERROR,ERROR,ERROR,ERROR,ERROR,ERROR,ERROR,ERROR,ERROR
2282,TEGLY-80,TRIETHYLENE-GLYCOL-80-WT-%,ERROR,ERROR,ERROR,ERROR,ERROR,ERROR,ERROR,ERROR,ERROR,ERROR,ERROR,ERROR
2283,TEGLY-L,TEGLY-L,ERROR,ERROR,ERROR,ERROR,ERROR,ERROR,ERROR,ERROR,ERROR,ERROR,ERROR,ERROR
2284,THERM44,THERMINOL-44,ERROR,ERROR,ERROR,ERROR,ERROR,ERROR,ERROR,ERROR,ERROR,ERROR,ERROR,ERROR
2285,THERM550,THERMALANE-550-(FG-1),ERROR,ERROR,ERROR,ERROR,ERROR,ERROR,ERROR,ERROR,ERROR,ERROR,ERROR,ERROR
2286,THERM60,THERMINOL-60,ERROR,ERROR,ERROR,ERROR,ERROR,ERROR,ERROR,ERROR,ERROR,ERROR,ERROR,ERROR
2287,THERM600,THERMALANE-600,ERROR,ERROR,ERROR,ERROR,ERROR,ERROR,ERROR,ERROR,ERROR,ERROR,ERROR,ERROR
2288,THERM66,THERMINOL-66,ERROR,ERROR,ERROR,ERROR,ERROR,ERROR,ERROR,ERROR,ERROR,ERROR,ERROR,ERROR
2289,THERM77,THERMINOL-77,ERROR,ERROR,ERROR,ERROR,ERROR,ERROR,ERROR,ERROR,ERROR,ERROR,ERROR,ERROR
2290,THERM800,THERMALANE-800,ERROR,ERROR,ERROR,ERROR,ERROR,ERROR,ERROR,ERROR,ERROR,ERROR,ERROR,ERROR
2291,THERMFG1,THERMFG1,ERROR,ERROR,ERROR,ERROR,ERROR,ERROR,ERROR,ERROR,ERROR,ERROR,ERROR,ERROR
2292,THERMFR0,THERMINOL-FR-0,ERROR,ERROR,ERROR,ERROR,ERROR,ERROR,ERROR,ERROR,ERROR,ERROR,ERROR,ERROR
2293,THERMFR1,THERMINOL-FR-1,ERROR,ERROR,ERROR,ERROR,ERROR,ERROR,ERROR,ERROR,ERROR,ERROR,ERROR,ERROR
2294,THERMFR2,THERMINOL-FR-2,ERROR,ERROR,ERROR,ERROR,ERROR,ERROR,ERROR,ERROR,ERROR,ERROR,ERROR,ERROR
2295,THERMFR3,THERMINOL-FR-3,ERROR,ERROR,ERROR,ERROR,ERROR,ERROR,ERROR,ERROR,ERROR,ERROR,ERROR,ERROR
2296,THERMVP1,THERMINOL-VP-1,ERROR,ERROR,ERROR,ERROR,ERROR,ERROR,ERROR,ERROR,ERROR,ERROR,ERROR,ERROR