Index,Solvent,cname,MW,RHO,CP,HV,MU,BP,GAMMA1,GAMMA2,VP,GAMMAS,S,alpha
1199,C8H14O2-D1,ISOBUTYL-METHACRYLATE,142.19796,880.649459,258.695088,46646.5549,0.918772574,155,0.889109361,0.794777711,0.484297069,0.639027175,1.11868935,2.858750971
1200,C8H14O2-D4,TERT-BUTYL-METHACRYLATE,142.19796,872.123353,264.987614,45372.5032,0.746857173,136,0.884311654,0.793839076,0.978112755,0.639819748,1.113968411,2.55242237
1201,C6H11N-D1,DIALLYLAMINE,97.16008,762.514325,199.834298,42159.2249,0.689251134,111,1.16406484,0.943621608,2.69324593,0.941949318,1.233614014,2.019630789
1202,C9H15N,TRIALLYLAMINE,137.22484,791.969079,220.754676,48159.1087,0.458230308,150.5,0.846602191,0.779566232,0.484617554,0.653253642,1.085991358,2.840508498
1203,C10H15N-E2,"2,6-DIETHYLANILINE",149.23584,888.579068,287.824073,65620.1674,37.5397253,235.5,1.23298835,1.17218831,0.004011068,2.23602863,1.051868833,4.565396498
1204,C10H15N,N-BUTYLANILINE,149.23584,928.125345,256.126146,65584.1986,2955.99599,240.75,1.03854215,0.973720232,0.007850496,1.06786772,1.066571399,4.514156095
1205,C12H11N-D1,P-AMINODIPHENYL,169.22608,973.764124,226.384861,72452.0986,6.53450353,3.37E+02,2.35361879,2.13329986,7.8508E-05,6.9655962,1.103276119,6.040315999
1206,C7H7NO-D1,BENZAMIDE,121.13872,1163.89305,189.901898,77833.9562,25.1521135,290,2.3339494,1.94884186,0.000197684,3.39211838,1.197608409,5.912469544
1207,C7H7NO,FORMANILIDE,ERROR,ERROR,ERROR,ERROR,ERROR,ERROR,ERROR,ERROR,ERROR,ERROR,ERROR,ERROR
1208,C6H14O2S,DI-N-PROPYL-SULFONE,150.24196,1044.62341,275.041329,73392.7828,5.83352112,269.85,2.06563127,1.60317205,0.000608481,1.8002997,1.288465121,5.614524781
1209,C14H10,DIPHENYLACETYLENE,178.2334,969.598179,232.91776,66595.7276,5.06438037,299.85,1.34422933,1.19626748,0.000697935,1.92173465,1.12368626,5.399456447
1210,C2H4S,THIACYCLOPROPANE,60.11976,1006.04847,98.236327,30306.3936,2.90E-01,54.93,0.006189625,1.99942E-05,33.2994957,0.237913757,309.570537,-3.148816042
1211,C3H4CL2,"2,3-DICHLOROPROPENE",110.97016,1201.48253,166.426458,38302.7832,0.888703657,93.35,1.20333918,0.958730122,6.60560908,0.983438883,1.255138597,1.618172589
1212,C6CL6,HEXACHLOROBENZENE,284.7822,2055.79205,328.4649,105045.686,17.4624143,3.09E+02,2.68526885,2.91666726,5.18967E-05,13.06251,0.920663418,6.082857292
1213,C5H10O3-N4,METHYL-2-HYDROXYISOBUTYRATE,ERROR,ERROR,ERROR,ERROR,ERROR,ERROR,ERROR,ERROR,ERROR,ERROR,ERROR,ERROR
1214,C6H16N2-D1,TETRAMETHYLETHYLENEDIAMINE,116.20652,769.592033,232.515097,41395.4645,1.685527,121,0.886411404,0.968781391,2.13401558,0.991257816,0.914975672,2.109978038
1215,C8H16O4,2-2-ETHOXYETHOXY-ETHYL-ACETATE,176.21264,1053.8088,331.895868,67286.2897,2.50236406,215.95,1.21786279,0.930000042,0.008836564,1.76744021,1.309529823,4.223991257
1216,C10H20O4,DIGLYCOL-MONOBUTYL-ETHER-ACETATE,204.2664,975.255404,310.800009,66683.159,4.52035012,245.3,0.951137545,0.78089774,0.002104347,1.11847847,1.218005247,4.969985568
1217,VCL4,VANADIUM-TETRACHLORIDE,ERROR,ERROR,ERROR,ERROR,ERROR,ERROR,ERROR,ERROR,ERROR,ERROR,ERROR,ERROR
1218,VCL3O,VANADIUM-OXYTRICHLORIDE,ERROR,ERROR,ERROR,ERROR,ERROR,ERROR,ERROR,ERROR,ERROR,ERROR,ERROR,ERROR
1219,C18H15P,TRIPHENYLPHOSPHINE,ERROR,ERROR,ERROR,ERROR,ERROR,ERROR,ERROR,ERROR,ERROR,ERROR,ERROR,ERROR
1220,C8H8O2-D5,4-HYDROXYACETOPHENONE,136.15032,1172.13022,309.437055,97050.7414,385.308728,3.29E+02,3.96131899,3.07547003,1.25636E-05,16.8342802,1.288036935,6.611738536
1221,C9H20O-D1,"2,6-DIMETHYL-4-HEPTANOL",144.2572,807.507843,301.210427,59668.4591,10.425678,177.85,1.18850532,1.38534339,0.040302088,2.17873872,0.857913878,3.647161196
1222,C4H13N3,DIETHYLENE-TRIAMINE,103.16744,955.28602,199.395591,58661.0844,5.68064143,207.1,2.90967913,2.30362769,0.023449794,7.42246112,1.263085672,3.570861783
1223,C9H18O4,DPG-MONOMETHYL-ETHER-ACETATE,190.23952,976.205732,373.392701,63553.8444,5.56647932,209.3,1.15276104,0.880761189,0.017436395,1.78553271,1.308823611,3.900770117
1224,C8H18O2-D1,2-HEXOXYETHANOL,146.22972,887.150045,268.326313,59127.6895,4.2935446,208.3,1.41514237,1.55522707,0.020645423,3.29258908,0.909926529,3.808568957
1225,C3H7OCL,1-CHLORO-3-PROPANOL,94.54068,1128.97924,147.579814,53709.0492,6.75953842,161,2.96006794,2.7515216,0.163427621,5.14628091,1.075793096,2.963890439
1226,C26H54,N-HEXACOSANE,366.71476,796.333291,755.708075,124434.314,12.6954316,4.12E+02,0.428371768,0.528008855,5.5189E-09,0.189233769,0.811296561,11.15292617
1227,CF3I,TRIFLUOROIODOMETHANE,195.91067,2061.21738,None,None,None,-21.8,4.97587356,3.82084207,492.47349,10.4029282,1.302297627,-0.678242911
1228,C4H8OS-D1,ETHYL-THIOLACETATE,104.17292,974.199501,157.707608,39997.5382,0.543752914,114.85,0.186977111,0.010367364,2.78210361,0.499814087,18.03516479,0.321622998
1229,C2H3CLO-D0,CHLOROACETALDEHYDE,78.49792,1237.87019,122.29629,37906.2473,0.426020765,84.85,2.81543135,1.00926589,8.49698297,2.85589873,2.789583377,1.068134505
1230,HCLO4,PERCHLORIC-ACID,ERROR,ERROR,ERROR,ERROR,ERROR,ERROR,ERROR,ERROR,ERROR,ERROR,ERROR,ERROR
1231,C7H14-3,"CIS-1,2-DIMETHYLCYCLOPENTANE",98.18816,768.275002,190.514002,35759.9435,0.494257143,99.53,1.05502232,1.34463498,6.29516397,1.4677533,0.784616149,1.612080753
1232,C8H18-9,"3,3-DIMETHYLHEXANE",114.23092,724.021116,248.721829,37662.5872,0.470794097,111.97,0.911811936,1.15992097,3.81359269,1.30947007,0.786098329,1.815134977
1233,C4H10S-D2,TERT-BUTYL-MERCAPTAN,90.1894,794.536955,172.686596,30835.3532,0.584891508,64.22,0.926513686,0.939642887,24.1630865,0.952120367,0.986027457,1.060255027
1234,C4H8O-D1,"1,2-EPOXY-2-METHYLPROPANE",72.10692,805.824001,138.070306,28528.6936,0.659665953,51.5,1.26261484,1.24488336,38.984936,1.22116169,1.014243487,0.866595125
1235,C3H6CL2-D1,"1,1-DICHLOROPROPANE",112.98604,1125.8637,153.683934,35244.0608,0.604682038,88.1,1.06597327,1.06988975,9.100819,1.12702647,0.996339361,1.467460894
1236,C8H18O3-D2,DIPROPYLENE-GLYCOL-ETHYL-ETHER,162.22912,930.459889,297.62031,57838.5975,4.85883404,197.85,1.47382409,1.55621786,0.033306977,3.9444656,0.947055119,3.52268346
1237,C4F10,DECAFLUOROBUTANE,238.028,1496.68798,None,None,None,-1.3,5.34201398,9.25095645,269.263586,2147.71072,0.577455316,-2.346830314
1238,C7H8O2,P-METHOXYPHENOL,124.13932,1146.76263,215.460985,71787.5424,19.3071026,244.7,4.03908072,3.14021846,0.000603218,11.6277238,1.286241951,5.100127048
1239,C5H8O3,2-HYDROXYETHYL-ACRYLATE,ERROR,ERROR,ERROR,ERROR,ERROR,ERROR,ERROR,ERROR,ERROR,ERROR,ERROR,ERROR
1240,C6H10O3-D3,HYDROXYPROPYL-ACRYLATE,130.1436,1119.67869,192.365745,53199.1405,1.83491125,225,2.09292186,1.84955399,0.023189854,4.53125848,1.131581923,3.69468663
1241,C6H10O3,2-HYDROXYETHYL-METHACRYLATE,130.1436,1067.50433,214.914714,57114.3925,1.38892825,226,2.07415049,1.86896126,0.01680731,4.55599926,1.109787845,3.836654917
1242,C7H12O3,2-HYDROXYPROPYL-METHACRYLATE,144.17048,1025.83504,275.397784,69521.2896,6.98166511,211.85,1.70381654,1.55079701,0.005825725,3.40140706,1.098671541,4.342682837
1243,C10H22O3-D1,2-2-HEXOXYETHOXY-ETHANOL,190.28288,927.929674,326.872611,78243.2521,6.2664032,259.1,1.21375072,1.26509629,0.000241381,2.96805842,0.959413706,5.696084172
1244,CH4N2S,THIOUREA,ERROR,ERROR,ERROR,ERROR,ERROR,ERROR,ERROR,ERROR,ERROR,ERROR,ERROR,ERROR
1245,C11H16O,P-TERT-AMYLPHENOL,164.24744,966.533744,303.718314,72047.4791,4.02452266,262.5,1.02850332,0.937780201,0.001282436,0.949868346,1.096742412,5.335538509
1246,C3H4N2,PYRAZOLE,ERROR,ERROR,ERROR,ERROR,ERROR,ERROR,ERROR,ERROR,ERROR,ERROR,ERROR,ERROR
1247,C4H4N2-D2,PYRIDAZINE,ERROR,ERROR,ERROR,ERROR,ERROR,ERROR,ERROR,ERROR,ERROR,ERROR,ERROR,ERROR
1248,C7H5NO,PHENYL-ISOCYANATE,ERROR,ERROR,ERROR,ERROR,ERROR,ERROR,ERROR,ERROR,ERROR,ERROR,ERROR,ERROR
1249,C2HCL2F3-D1,"1,1-DICHLORO-2,2,2-TRIFLUOROETHA",152.93054,1464.53566,158.713907,26132.2644,0.4199554,27.9,2.61114754,3.07184547,91.4041632,12.1714064,0.850025682,-0.109770916
1250,C14H28O2-N1,ETHYL-LAURATE,ERROR,ERROR,ERROR,ERROR,ERROR,ERROR,ERROR,ERROR,ERROR,ERROR,ERROR,ERROR
1251,C8H12N2O2,"1,6-HEXAMETHYLENE-DIISOCYANATE",ERROR,ERROR,ERROR,ERROR,ERROR,ERROR,ERROR,ERROR,ERROR,ERROR,ERROR,ERROR
1252,C6H8O6,ASCORBIC-ACID,ERROR,ERROR,ERROR,ERROR,ERROR,ERROR,ERROR,ERROR,ERROR,ERROR,ERROR,ERROR
1253,C5H8O4,GLUTARIC-ACID,132.11612,1277.31444,259.124816,102868.162,57.6771179,3.27E+02,8.7129955,12.3719306,1.41058E-06,24.1803293,0.704255122,8.008714581
1254,C8H6O4-D2,PHTHALIC-ACID,166.13324,1308.4719,239.786377,109334.444,183.352452,3.25E+02,11.5984214,11.9072481,1.71363E-06,44.7523841,0.974063974,7.640215208
1255,C23H48,N-TRICOSANE,324.63412,791.147065,666.740057,110373.582,7.41287359,3.80E+02,0.471891446,0.582749389,7.66762E-08,0.278932353,0.80976738,9.884458683
1256,DEPG,DIMETHYL-ETHER-POLYETHYLENE-GLYCOL,ERROR,ERROR,ERROR,ERROR,ERROR,ERROR,ERROR,ERROR,ERROR,ERROR,ERROR,ERROR
1257,C6H10O4-D1,ADIPIC-ACID,146.143,1202.07809,294.54921,110343.227,50.9557845,3.36E+02,5.30492345,6.95468196,1.35753E-07,16.1097466,0.762784478,8.951576124
1258,C15H30O2,PENTADECANOIC-ACID,242.402,882.476482,538.325433,117362.109,22.9118981,3.38E+02,0.694513211,0.771549435,2.3833E-07,0.557495626,0.900153872,9.213079554
1259,C17H34O2,N-HEPTADECANOIC-ACID,270.45576,878.892398,594.976071,126441.483,28.4849518,3.62E+02,0.618662632,0.687926004,3.02829E-08,0.411811943,0.899315665,10.19078246
1260,C8H14O4-D1,SUBERIC-ACID,174.19676,1144.25304,399.848265,134457.103,28.7509258,3.52E+02,2.77899318,3.35301445,6.44169E-08,8.11616748,0.828804415,9.256221309
1261,C9H16O4,AZELAIC-ACID,188.22364,1110.35617,424.17223,138359.978,21.7075066,3.60E+02,2.21175328,2.60649606,3.11895E-08,6.00538355,0.848554239,9.592643894
1262,C8H10N4O2,CAFFEINE,ERROR,ERROR,ERROR,ERROR,ERROR,ERROR,ERROR,ERROR,ERROR,ERROR,ERROR,ERROR
1263,C11H20O2,2-ETHYLHEXYL-ACRYLATE,184.2786,881.051847,308.912275,55623.0353,1.5609394,216,0.716616179,0.663787431,0.023913818,0.419706403,1.079586846,4.269570978
1264,C2BR2F4,"1,2-DIBROMOTETRAFLUOROETHANE",259.8236,2161.4616,185.782378,28383.9822,0.730225302,47.16,5.99768707,9.84849524,45.408844,122.473987,0.608995275,-0.302677962
1265,C3H9NO-D1,1-AMINO-2-PROPANOL,75.1106,957.222683,142.826284,54039.5483,23.0205434,159.46,5.55491617,6.26572766,0.143050014,49.8877882,0.886555636,2.39262582
1266,C9H20O4,TRIPROPYLENE-GLYCOL,192.2554,1018.57729,355.778839,91711.9126,54.537599,267.2,2.1455023,2.27532801,0.00050278,32.019614,0.94294198,4.599386253
1267,C5H6-E3,1-PENTENE-4-YNE,66.10264,724.694654,139.898529,26717.4507,0.29534254,42.5,1.19479921,1.06733227,55.5640555,1.07679807,1.119425734,0.700507895
1268,C10H20O2-D5,N-NONYL-FORMATE,172.2676,863.135076,297.997669,57111.6296,1.68517218,213.85,0.828301836,0.816099035,0.022779814,0.698038862,1.014952598,4.159449545
1269,C8H16O-D2,3-OCTANONE,128.21444,818.28638,253.170222,49712.95,0.898995462,167.5,0.932315086,0.878150532,0.24125282,0.813857573,1.061680261,3.099684621
1270,C9H18O-D3,3-NONANONE,142.24132,819.876429,290.877507,56091.7776,1.15709193,187.5,0.858290886,0.82068046,0.070330787,0.719272205,1.045828343,3.659271796
1271,C12H24O-D1,"2,6,8-TRIMETHYL-4-NONANONE",184.32196,820.657151,354.538465,63297.156,1.69718804,218.25,0.700655498,0.693983944,0.011494417,0.493237667,1.009613413,4.536942703
1272,C8H18O-D3,ETHYL-N-HEXYL-ETHER,130.23032,768.563761,269.613105,47153.8792,0.915617774,144,0.889168618,1.03043928,0.64306684,1.09512789,0.862902488,2.614437911
1273,C20H42O,1-EICOSANOL,298.55288,836.348054,616.204508,119909.997,68.3798585,3.72E+02,0.555135088,0.629468507,4.93508E-08,0.3372535,0.881910821,10.02685989
1274,C15H24O-D1,"2,6-DI-TERT-BUTYL-P-CRESOL",220.35496,931.757964,358.70742,64819.807,22.9606094,268,0.68294262,0.625611689,0.001906248,0.383691227,1.091639802,5.381279937
1275,C3H3F3,"3,3,3-TRIFLUOROPROPENE",96.05202,1132.33075,None,None,None,-25,1.36674119,2.67421986,571.128859,5.07927491,0.511080338,-0.586202255
1276,C4H6O-D3,METHACROLEIN,70.09104,832.361598,126.334406,32040.4469,0.438908018,68,2.08234311,1.34030017,20.1561602,1.80668492,1.553639369,1.015048312
1277,C8H18-16,2-METHYL-3-ETHYLPENTANE,114.23092,728.1092,252.48188,38612.5872,0.433282333,115.65,0.91809875,1.16630138,3.18644291,1.3103347,0.787188257,1.895258866
1278,C9H18-N26,"1,1,3-TRIMETHYLCYCLOHEXANE",ERROR,ERROR,ERROR,ERROR,ERROR,ERROR,ERROR,ERROR,ERROR,ERROR,ERROR,ERROR
1279,C8H18O2S,DI-N-BUTYL-SULFONE,178.29572,1004.80113,315.550983,79917.5325,8.66146525,290.85,1.38622693,1.0867924,0.000122931,1.01306868,1.275521369,6.389980994
1280,C2H5CLO2S,ETHANESULFONYL-CHLORIDE,ERROR,ERROR,ERROR,ERROR,ERROR,ERROR,ERROR,ERROR,ERROR,ERROR,ERROR,ERROR
1281,CH3CLO2S,METHANESULFONYL-CHLORIDE,ERROR,ERROR,ERROR,ERROR,ERROR,ERROR,ERROR,ERROR,ERROR,ERROR,ERROR,ERROR
1282,FHO3S,FLUOROSULFONIC-ACID,ERROR,ERROR,ERROR,ERROR,ERROR,ERROR,ERROR,ERROR,ERROR,ERROR,ERROR,ERROR
1283,C4H6O-D4,"2,3-DIHYDROFURAN",70.09104,917.549817,118.588731,30674.38,0.43124914,54.5,1.45984373,1.33221612,33.4794082,1.35146355,1.09580098,0.918129035
1284,C8H8O3-D1,VANILLIN,152.14972,1191.31103,251.010056,85838.9083,19.3246175,2.85E+02,6.76863822,3.86592281,6.33355E-05,50.6830852,1.750846707,5.52987925
1285,SIH2CL2,DICHLOROSILANE,ERROR,ERROR,ERROR,ERROR,ERROR,ERROR,ERROR,ERROR,ERROR,ERROR,ERROR,ERROR
1286,C6H3N3O7,PICRIC-ACID,229.10584,1662.39105,304.668367,110406.688,428.864057,3.62E+02,10.9428805,0.734229506,1.28506E-07,1.31497915,14.90389641,9.087126531
1287,C10H14-D2,O-DIETHYLBENZENE,134.22116,875.98437,237.840914,50917.2432,1.14264648,183.458,0.88877022,0.896506472,0.140493037,0.909727721,0.991370668,3.29512366
1288,C6H10-N6,TERT-BUTYLACETYLENE,82.1454,664.403841,155.132698,25917.5829,0.461821371,37.72,0.987693142,0.980536792,65.3338394,1.04078625,1.0072984,0.608100628
1289,C10H12-N7,5-METHYLINDAN,132.20528,944.69339,177.039965,48279.2733,1.54202191,202,1.06938851,1.0830534,0.101606601,1.26570867,0.987382995,3.374530652
1290,C5H12O4,PENTAERYTHRITOL,ERROR,ERROR,ERROR,ERROR,ERROR,ERROR,ERROR,ERROR,ERROR,ERROR,ERROR,ERROR
1291,C33H62O6,TRICAPRIN,ERROR,ERROR,ERROR,ERROR,ERROR,ERROR,ERROR,ERROR,ERROR,ERROR,ERROR,ERROR
1292,C39H74O6,TRILAURIN,ERROR,ERROR,ERROR,ERROR,ERROR,ERROR,ERROR,ERROR,ERROR,ERROR,ERROR,ERROR
1293,C45H86O6,TRIMYRISTIN,ERROR,ERROR,ERROR,ERROR,ERROR,ERROR,ERROR,ERROR,ERROR,ERROR,ERROR,ERROR
1294,C51H98O6,TRIPALMITIN,ERROR,ERROR,ERROR,ERROR,ERROR,ERROR,ERROR,ERROR,ERROR,ERROR,ERROR,ERROR
1295,C57H110O6,GLYCEROL-TRISTEARATE,ERROR,ERROR,ERROR,ERROR,ERROR,ERROR,ERROR,ERROR,ERROR,ERROR,ERROR,ERROR
1296,C4H10ALCL,DIETHYLALUMINUM-CHLORIDE,ERROR,ERROR,ERROR,ERROR,ERROR,ERROR,ERROR,ERROR,ERROR,ERROR,ERROR,ERROR
1297,C5H7NO2,ETHYL-CYANOACETATE,113.11612,1059.83636,196.055238,70489.2067,2.50799067,206,2.97487472,1.84172028,0.019831931,4.10067958,1.615269567,3.804139286
1298,C9H18O2-N5,N-AMYL-BUTYRATE,ERROR,ERROR,ERROR,ERROR,ERROR,ERROR,ERROR,ERROR,ERROR,ERROR,ERROR,ERROR
1299,TIO2,TITANIUM-DIOXIDE-RUTILE,ERROR,ERROR,ERROR,ERROR,ERROR,ERROR,ERROR,ERROR,ERROR,ERROR,ERROR,ERROR
1300,C7H3CL2NO,"3,4-DICHLOROPHENYL-ISOCYANATE",ERROR,ERROR,ERROR,ERROR,ERROR,ERROR,ERROR,ERROR,ERROR,ERROR,ERROR,ERROR
1301,C6H18O3SI3,HEXAMETHYLCYCLOTRISILOXANE,222.46362,928.919883,298.522629,43723.1242,0.80271503,134,0.66401471,0.53990278,1.16924324,0.323649418,1.229878294,2.603472326
1302,C10H30SI5O5,DECAMETHYLCYCLOPENTASILOXANE,370.7727,952.001035,478.208107,58212.8436,3.81125004,210.95,0.455534409,0.366500491,0.029435146,0.059621672,1.242929874,4.76894068
1303,C16H32O2-N2,ETHYL-MYRISTATE,ERROR,ERROR,ERROR,ERROR,ERROR,ERROR,ERROR,ERROR,ERROR,ERROR,ERROR,ERROR
1304,C18H36O2-N2,ETHYL-PALMITATE,ERROR,ERROR,ERROR,ERROR,ERROR,ERROR,ERROR,ERROR,ERROR,ERROR,ERROR,ERROR
1305,C8H18-17,3-METHYL-3-ETHYLPENTANE,114.23092,723.686176,242.049652,38094.0639,0.524730281,118.27,0.911811936,1.15992097,3.06452746,1.30947007,0.786098329,1.910105767
1306,C3H4N2-N1,"1,3-DIAZOLE",ERROR,ERROR,ERROR,ERROR,ERROR,ERROR,ERROR,ERROR,ERROR,ERROR,ERROR,ERROR
1307,C15H16O2,BISPHENOL-A,228.29084,1160.75708,459.715264,1.47E+05,56.7722833,3.61E+02,1.46123803,1.17E+00,2.08576E-09,2.06651804,1.249944168,10.88246251
1308,C6H4N2O4-E1,M-DINITROBENZENE,168.10884,1443.02201,368.345702,90078.0989,8.11119,302.35,1.56360669,0.231840156,0.000108352,0.179861896,6.744330736,6.524549663
1309,C12H22O11,SUCROSE,ERROR,ERROR,ERROR,ERROR,ERROR,ERROR,ERROR,ERROR,ERROR,ERROR,ERROR,ERROR
1310,C6H12O6-N1,D-FRUCTOSE,ERROR,ERROR,ERROR,ERROR,ERROR,ERROR,ERROR,ERROR,ERROR,ERROR,ERROR,ERROR
1311,C14H8O2,ANTHRAQUINONE,ERROR,ERROR,ERROR,ERROR,ERROR,ERROR,ERROR,ERROR,ERROR,ERROR,ERROR,ERROR
1312,C6H4N2O4-E2,O-DINITROBENZENE,168.10884,1407.00695,374.868056,93519.5051,19.7141182,3.19E+02,1.56360669,0.231840156,8.13162E-05,0.179861896,6.744330736,6.649208745
1313,C4H6O6,TARTARIC-ACID,ERROR,ERROR,ERROR,ERROR,ERROR,ERROR,ERROR,ERROR,ERROR,ERROR,ERROR,ERROR
1314,HG,MERCURY,ERROR,ERROR,ERROR,ERROR,ERROR,ERROR,ERROR,ERROR,ERROR,ERROR,ERROR,ERROR
1315,C15H24-D1,"1,3,5-TRIISOPROPYLBENZENE",204.35556,847.548058,364.954572,65111.8968,3.49099886,238,0.683302903,0.751298425,0.005449412,0.626003952,0.909495988,4.792022186
1316,C8H18-14,"2,3,3-TRIMETHYLPENTANE",114.23092,726.755594,239.65688,37323.3683,0.602444043,114.77,0.912058682,1.1601842,3.59773565,1.30941899,0.786132652,1.840555522
1317,C9H20-E3,"2,2-DIMETHYL-3-ETHYLPENTANE",128.2578,731.0006,252.926104,41122.0424,0.696638979,133.84,0.863149945,1.09293391,1.50449264,1.22685871,0.789754931,2.221545743
1318,C2H4N2O6,ETHYLENE-GLYCOL-DINITRATE,ERROR,ERROR,ERROR,ERROR,ERROR,ERROR,ERROR,ERROR,ERROR,ERROR,ERROR,ERROR
1319,C3H5N3O9,NITROGLYCERINE,ERROR,ERROR,ERROR,ERROR,ERROR,ERROR,ERROR,ERROR,ERROR,ERROR,ERROR,ERROR
1320,C11H22O-D1,DIAMYL-KETONE,170.29508,822.586336,324.305631,64041.2985,1.78133908,227.4,0.744615113,0.73006137,0.007422501,0.559293643,1.019934958,4.694305682
1321,C7H10S,2-N-PROPYLTHIOPHENE,126.2224,964.773418,173.294345,45691.105,0.749147131,158.5,0.999470133,0.952347977,0.453538116,0.951786518,1.049479977,2.792778783
1322,CBR2F2,DIBROMODIFLUOROMETHANE,209.8158,2271.93837,None,None,None,22.79,6.68243768,10.6996228,108.359497,27.7220179,0.624548903,0.000813108
1323,C2H3CLO,ACETYL-CHLORIDE,ERROR,ERROR,ERROR,ERROR,ERROR,ERROR,ERROR,ERROR,ERROR,ERROR,ERROR,ERROR
1324,C12H24O2-E1,N-DECYL-ACETATE,200.32136,860.979305,393.285051,74629.5278,2.47090885,244,0.68130684,0.673673577,0.001553301,0.428707287,1.011330804,5.45416947
1325,C5H8-2,"1,2-PENTADIENE",ERROR,ERROR,ERROR,ERROR,ERROR,ERROR,ERROR,ERROR,ERROR,ERROR,ERROR,ERROR
1326,C5H8-E4,"2,3-PENTADIENE",ERROR,ERROR,ERROR,ERROR,ERROR,ERROR,ERROR,ERROR,ERROR,ERROR,ERROR,ERROR
1327,C11H24-N5,2-METHYLDECANE,ERROR,ERROR,ERROR,ERROR,ERROR,ERROR,ERROR,ERROR,ERROR,ERROR,ERROR,ERROR
1328,C9H20-2,"2,2,3-TRIMETHYLHEXANE",128.2578,614.936879,267.211482,41904.9445,1.14646137,133.65,0.863149945,1.09293391,1.50234114,1.22685871,0.789754931,2.22216725
1329,NA,SODIUM,ERROR,ERROR,ERROR,ERROR,ERROR,ERROR,ERROR,ERROR,ERROR,ERROR,ERROR,ERROR
1330,NAI,SODIUM-IODIDE,ERROR,ERROR,ERROR,ERROR,ERROR,ERROR,ERROR,ERROR,ERROR,ERROR,ERROR,ERROR
1331,C25H52,N-PENTACOSANE,352.68788,795.762621,724.729862,119282.375,9.05773244,4.02E+02,0.441979347,0.545097778,1.30821E-08,0.215688596,0.810825809,10.73510597
1332,C2H6S2-D1,"1,2-ETHANEDITHIOL",94.20164,1119.21437,132.338196,44050.1937,0.717177886,146.05,1.69138181,0.996919826,0.756937842,0.997449455,1.696607657,2.569845578
1333,C7H10N2-D1,"2,6-DIAMINOTOLUENE",122.16988,860.547258,308.761091,88986.5505,2.92050721,283.85,4.61646084,3.72571174,0.000167603,38.5585014,1.239081594,5.209943019
1334,C3H7CLO2S,PROPANESULFONYL-CHLORIDE,ERROR,ERROR,ERROR,ERROR,ERROR,ERROR,ERROR,ERROR,ERROR,ERROR,ERROR,ERROR
1335,C3H10SIO3,TRIMETHOXYSILANE,122.1961,950.861889,196.796386,35883.7511,0.374603857,84.35,0.004101285,0.391103198,9.74583322,2.02878183,0.010486453,0.745373506
1336,C20H38O2-N1,ETHYL-OLEATE,310.52052,867.170142,557.517399,92014.6597,5.99219393,3.53E+02,0.477340154,0.502002326,3.57632E-06,0.14975762,0.950872395,8.421017486
1337,C6H4N2,NICOTINONITRILE,ERROR,ERROR,ERROR,ERROR,ERROR,ERROR,ERROR,ERROR,ERROR,ERROR,ERROR,ERROR
1338,C10H30SI4O3,DECAMETHYLTETRASILOXANE,310.6884,846.382958,430.451723,54473.4467,1.2958885,194.4,0.78477963,0.892495768,0.06613357,158.902419,0.879309077,1.37819015