Index,Solvent,cname,MW,RHO,CP,HV,MU,BP,GAMMA1,GAMMA2,VP,GAMMAS,S,alpha
799,C28H58,N-OCTACOSANE,394.76852,798.243026,811.429993,133314.731,15.4351876,4.32E+02,0.403481383,0.496811844,2.61473E-10,0.145074703,0.812141232,12.56630969
800,C4H7N-D0,ISOBUTYRONITRILE,ERROR,ERROR,ERROR,ERROR,ERROR,ERROR,ERROR,ERROR,ERROR,ERROR,ERROR,ERROR
801,C20H40O2-N3,ETHYL-STEARATE,ERROR,ERROR,ERROR,ERROR,ERROR,ERROR,ERROR,ERROR,ERROR,ERROR,ERROR,ERROR
802,C5H13N,N-PENTYLAMINE,87.16496,750.899999,193.158619,39684.4937,0.673601991,104.5,1.27920436,1.35940769,3.99921846,1.59111825,0.941001268,1.778808597
803,C6H14S-D1,DI-N-PROPYL-SULFIDE,118.24316,833.20879,217.446278,44052.8551,0.648601235,142.83,0.05443537,0.003394805,0.88874023,0.184755204,16.0349026,0.76457979
804,C8H18S-D3,DI-N-BUTYL-SULFIDE,146.29692,834.492802,260.243752,51523.1768,0.977093486,188.8,0.076934204,0.007841263,0.104323292,0.158156324,9.811455367,2.126054649
805,C2H6S2,DIMETHYL-DISULFIDE,ERROR,ERROR,ERROR,ERROR,ERROR,ERROR,ERROR,ERROR,ERROR,ERROR,ERROR,ERROR
806,C4H10S2,DIETHYL-DISULFIDE,122.2554,987.203952,198.592014,45445.571,8.04E-01,153.98,0.008002791,4.33955E-05,0.567153781,0.04293078,184.4151854,-0.299888344
807,C8H11N-D2,N-ETHYLANILINE,121.18208,957.742128,247.657027,61156.0323,1.93710601,203,1.34759141,1.18499446,0.027172836,1.42310871,1.137213258,3.935479744
808,C7H9N-D1,BENZYLAMINE,107.1552,977.753467,206.775402,55001.3152,1.60834022,184.5,2.01540613,1.85069198,0.088191855,2.89577977,1.089001385,3.309276596
809,C6H14O2-D5,"1,2-DIETHOXYETHANE",118.17596,839.078588,227.100245,43201.3899,0.674761095,121.4,1.17496261,1.20557072,1.69327799,1.52570562,0.974611104,2.118130143
810,C6H18N3OP,HEXAMETHYL-PHOSPHORAMIDE,ERROR,ERROR,ERROR,ERROR,ERROR,ERROR,ERROR,ERROR,ERROR,ERROR,ERROR,ERROR
811,C6H15N-D3,"N,N-DIMETHYL-N-BUTYLAMINE",101.19184,716.301264,212.254341,36320.3242,0.422682696,94,0.92484006,1.08009981,7.06235743,1.15108621,0.856254257,1.572542805
812,C5H11CL,1-CHLOROPENTANE,106.59504,877.422296,184.013305,37710.9161,0.54347911,107.5,0.906329886,0.910372793,4.28282146,0.873252077,0.995559064,1.835486133
813,C24H50,N-TETRACOSANE,338.661,792.75185,704.354496,115556.876,8.90920519,3.91E+02,0.456458098,0.563307626,3.62457E-08,0.245477392,0.810317626,10.25061424
814,C36H74,N-HEXATRIACONTANE,506.98356,806.856155,1019.96957,165218.753,27.8109615,4.97E+02,0.327128112,0.401575974,2.5902E-15,0.048040044,0.814610767,17.95796773
815,C32H66,N-DOTRIACONTANE,450.87604,805.192971,914.203778,148944.756,16.5218755,4.66E+02,0.361366677,0.444198654,1.41927E-12,0.084103814,0.813524926,15.01983244
816,C7H14O-D10,5-METHYL-2-HEXANONE,114.18756,807.757152,240.922755,46091.1766,0.789224024,144.8,1.14235476,1.00543938,0.729521205,1.00720127,1.136174674,2.585338167
817,C8H18-5,"2,2-DIMETHYLHEXANE",114.23092,693.331354,249.126727,37386.5471,0.492103967,106.84,0.911811936,1.15992097,4.537517,1.30947007,0.786098329,1.739651019
818,C9H20-D3,4-METHYLOCTANE,128.2578,716.362708,272.055855,44228.7768,0.540031785,142.44,0.868878723,1.09882271,0.910308896,1.23025616,0.790736044,2.440879752
819,C9H20-3,"2,2,4-TRIMETHYLHEXANE",128.2578,712.70325,264.812271,40902.1136,0.622674113,126.55,0.863149945,1.09293391,1.99856059,1.22685871,0.789754931,2.098218491
820,C8H18-8,"2,5-DIMETHYLHEXANE",114.23092,691.743735,248.193149,38016.1459,0.45604164,109.11,0.91809875,1.16630138,4.03944969,1.3103347,0.787188257,1.792242804
821,C8H18O5,TETRAETHYLENE-GLYCOL,194.22792,1127.38722,373.107455,102058.745,45.4779561,3.30E+02,2.92160312,2.88078996,1.50573E-06,83.899423,1.01416735,6.807140553
822,C5H10O2,NEOPENTANOIC-ACID,102.1332,916.668579,297.325974,67958.242,3.62418581,163.8,2.13202812,2.50710855,0.055784061,2.72326629,0.850393223,3.666709359
823,C6H14O3-D4,TRIMETHYLOLPROPANE,134.17536,1141.3012,227.124392,89553.5213,2234.4819,2.89E+02,5.42588185,7.25381531,9.32091E-06,533.188337,0.74800386,5.613363846
824,HE-4,HELIUM-4,4.0026,62.2077534,None,None,None,-268.926,None,None,227.5,0.734882597,ERROR,ERROR
825,NE,NEON,20.1797,482.723487,None,None,None,-246.06,None,None,2653,0.735449633,ERROR,ERROR
826,SF6,SULFUR-HEXAFLUORIDE,146.0564,1326.80312,None,None,None,-63.85,0.890989976,0.992349077,2429.39336,0.99293777,0.897859429,-0.936618941
827,C6H4CLNO2-D3,P-CHLORONITROBENZENE,157.556,1370.6722,192.119181,65270.1473,2.82974349,242,1.85601081,0.619968692,0.003927812,0.664830496,2.993716996,4.824644595
828,C6H4CLNO2-D1,M-CHLORONITROBENZENE,157.556,1371.80818,176.327299,56743.8268,3.00209291,235.7,1.85601081,0.619968692,0.013066483,0.664830496,2.993716996,4.302636578
829,C6H4CLNO2-D2,O-CHLORONITROBENZENE,157.556,1364.53826,184.956972,58185.8939,3.50787788,245.85,1.85601081,0.619968692,0.008830999,0.664830496,2.993716996,4.472785458
830,C8H14O,2-ETHYL-2-HEXENAL,126.19856,934.295827,250.990366,50184.2913,1.05741419,175.57,1.00125676,0.856535195,0.189393429,0.85290017,1.168961609,3.173618565
831,O2S,SULFUR-DIOXIDE,64.0648,1364.8633,None,None,None,-10.02,0.612388258,0.734771736,400.148615,0.823798938,0.833440139,-0.202753643
832,C6H15O4P,TRIETHYL-PHOSPHATE,ERROR,ERROR,ERROR,ERROR,ERROR,ERROR,ERROR,ERROR,ERROR,ERROR,ERROR,ERROR
833,C3H9O4P,TRIMETHYL-PHOSPHATE,ERROR,ERROR,ERROR,ERROR,ERROR,ERROR,ERROR,ERROR,ERROR,ERROR,ERROR,ERROR
834,C3H9NO-D2,3-AMINO-1-PROPANOL,75.1106,980.328094,202.480763,70933.9554,13.430447,187.5,5.54600087,6.25584225,0.010339069,49.8479679,0.886531445,3.533293348
835,C22H46O,BEHENYL-ALCOHOL,ERROR,ERROR,ERROR,ERROR,ERROR,ERROR,ERROR,ERROR,ERROR,ERROR,ERROR,ERROR
836,C6H14O-D2,2-ETHYL-1-BUTANOL,102.17656,830.859595,267.271035,60154.1629,5.31315127,147,1.76069887,2.1115237,0.178430092,3.77574782,0.833852289,2.945261341
837,C4H8O-5,VINYL-ETHYL-ETHER,72.10692,753.2492,151.251782,27706.858,0.210646426,35.55,1.24112605,1.17153325,68.681964,1.2317995,1.05940318,0.59050835
838,C20H40-D1,1-EICOSENE,280.5376,788.996006,565.916316,95895.0638,5.20403245,3.42E+02,0.510737204,0.602524138,1.90186E-06,0.307209878,0.847662644,8.462496745
839,C9H18O-E1,2-NONANONE,142.24132,842.60026,297.209036,57317.2502,1.1513172,194,0.923408815,0.843513539,0.055146554,0.74620595,1.094717242,3.760851432
840,C21H44,N-HENEICOSANE,296.58036,786.142022,615.848359,101417.902,5.67776667,3.57E+02,0.506008353,0.625846801,8.59178E-07,0.358209555,0.808517919,8.757384167
841,C4H5N-2,PYRROLE,ERROR,ERROR,ERROR,ERROR,ERROR,ERROR,ERROR,ERROR,ERROR,ERROR,ERROR,ERROR
842,C2H7SICL,DIMETHYLCHLOROSILANE,ERROR,ERROR,ERROR,ERROR,ERROR,ERROR,ERROR,ERROR,ERROR,ERROR,ERROR,ERROR
843,C7H14-2,"1,1-DIMETHYLCYCLOPENTANE",98.18816,749.951642,177.2973,33760.2344,0.494696101,87.85,1.03165807,1.31862886,10.1459652,1.43606168,0.782371827,1.405792575
844,C6H12O-D1,BUTYL-VINYL-ETHER,100.16068,773.644006,204.719515,37524.7185,0.448014927,93.82,1.02472849,1.03140769,6.54814721,1.07693289,0.99352419,1.61425975
845,C9H12O-D2,1-PHENYL-2-PROPANOL,136.19368,987.918203,262.653395,63243.2264,9.45638211,220,1.71663701,1.66589751,0.010862453,3.55149019,1.030457756,4.084446206
846,C14H14-D1,"1,1-DIPHENYLETHANE",182.26516,995.550935,290.044664,67962.0515,4.20913024,272.63,1.07011398,1.05788287,0.001553105,1.42261643,1.011561875,5.129285527
847,HI,HYDROGEN-IODIDE,127.91241,2520.05543,None,None,None,-35.6,0.63828666,0.761177084,791.567131,0.838721603,0.838552123,-0.491483416
848,C6H5I,IODOBENZENE,204.01017,1819.99902,154.725858,49368.3666,1.56317079,188.45,1.70260568,1.02048157,0.14164343,1.09748399,1.668433542,3.266346997
849,C16H34O-D1,DI-N-OCTYL-ETHER,242.44536,803.24486,491.743817,85785.9307,5.23069465,2.87E+02,0.591018699,0.699792718,6.91285E-05,0.487764204,0.844562517,6.766238549
850,C8H18-6,"2,3-DIMETHYLHEXANE",114.23092,714.307997,246.927429,38960.8589,0.468903044,115.61,0.91809875,1.16630138,3.12804277,1.3103347,0.787188257,1.903292325
851,C3F8,OCTAFLUOROPROPANE,188.0202,1322.64529,None,None,None,-36.7,5.83358863,10.2253679,885.706496,520.587077,0.570501589,-2.20496781
852,C7H5CL3,BENZOTRICHLORIDE,195.4748,1368.02754,180.847873,50178.9609,2.22056344,213.5,1.24662663,1.19330504,0.062586051,1.81985598,1.044683956,3.469373363
853,C7H16O4,2-2-2-METHOXYETHOXY-ETHOXY-ETHAN,164.20164,1044.70315,249.942732,69712.4512,6.19682261,233.85,2.47224518,2.24977974,0.001726918,15.1668505,1.098883209,4.38310944
854,D2,DEUTERIUM,4.028,66.6469478,None,None,None,-249.496,None,None,1661.7,0.4261633,ERROR,ERROR
855,C2F4,PERFLUOROETHENE,ERROR,ERROR,ERROR,ERROR,ERROR,ERROR,ERROR,ERROR,ERROR,ERROR,ERROR,ERROR
856,C10H14-E10,1-METHYL-4-N-PROPYLBENZENE,134.22116,854.786985,232.203526,50374.7032,0.991850152,183.3,0.870580323,0.857295831,0.147005466,0.836894302,1.015495808,3.292263078
857,NOCL,NITROSYL-CHLORIDE,65.45884,1261.67167,None,None,None,-5.38,0.683152545,0.808218645,324.512628,0.866135201,0.845257096,-0.092151966
858,C2CLF3,CHLOROTRIFLUOROETHYLENE,ERROR,ERROR,ERROR,ERROR,ERROR,ERROR,ERROR,ERROR,ERROR,ERROR,ERROR,ERROR
859,NO,NITRIC-OXIDE,30.00614,497.183539,None,None,None,-151.771,None,None,6480,0.554403177,ERROR,ERROR
860,C3F6O,HEXAFLUOROACETONE,ERROR,ERROR,ERROR,ERROR,ERROR,ERROR,ERROR,ERROR,ERROR,ERROR,ERROR,ERROR
861,COS,CARBONYL-SULFIDE,60.0764,997.281345,None,None,None,-50.28,0.81800156,0.937920657,1267.4255,0.946121362,0.872143666,-0.657566728
862,RN,RADON,ERROR,ERROR,ERROR,ERROR,ERROR,ERROR,ERROR,ERROR,ERROR,ERROR,ERROR,ERROR
863,C9H12O-D4,3-PHENYL-1-PROPANOL,136.19368,994.287188,206.244637,66015.4249,15.4765089,235,1.71402393,1.66371206,0.002947326,3.54426908,1.030240732,4.651259717
864,C6H12O2-D1,SEC-BUTYL-ACETATE,116.16008,866.14584,195.258224,40111.984,0.65556092,112,1.13154585,0.987517831,2.96129898,0.946444065,1.145848525,1.996104197
865,C8H8O2-D6,PHENYL-ACETATE,136.15032,1072.35889,217.805269,60400.0376,2.45489691,195.7,2.08088699,1.61635798,0.032442774,2.15192062,1.287392407,3.81372978
866,C3H5CLO2-D1,ETHYL-CHLOROFORMATE,ERROR,ERROR,ERROR,ERROR,ERROR,ERROR,ERROR,ERROR,ERROR,ERROR,ERROR,ERROR
867,C3H7CLO,1-CHLORO-2-PROPANOL,94.54068,1106.3,191.297625,48817.2558,3.9797739,126.5,2.9641135,2.75452666,0.993061311,5.14881678,1.076088151,2.18049994
868,C4H7CLO2,ETHYLCHLOROACETATE,122.55108,1144.56145,169.104753,46579.0047,1.10997556,144.2,1.66196633,1.17588432,0.631391908,1.11378873,1.413375705,2.672399229
869,C7H7BR,P-BROMOTOLUENE,171.03658,1397.01896,139.587862,46129.4674,1.1634484,184.35,1.23365722,1.14872435,0.182371883,1.53463343,1.073936685,3.062389751
870,C6H12O3-D1,2-ETHOXYETHYL-ACETATE,132.15948,963.615604,240.704376,52014.1162,1.18156891,156.59,1.39400201,1.07375711,0.281866748,1.59032607,1.298247059,2.82851249
871,C3H9NO,METHYL-ETHANOLAMINE,75.1106,933.708856,174.89285,56765.3117,10.5179774,158,4.49613035,4.06380154,0.144245356,21.6758827,1.106385316,2.562990319
872,C10H18-D1,1-DECYNE,138.25292,762.992645,319.394341,53116.9612,1.23184226,174,0.773259571,0.802763066,0.165094577,0.771787078,0.963247568,3.248493532
873,C14H28-2,1-TETRADECENE,196.37632,768.295342,394.912514,68618.6066,1.88047207,251.1,0.649369661,0.757784276,0.002359417,0.60421043,0.856932087,5.174689155
874,C11H22O2-D3,N-UNDECANOIC-ACID,186.29448,891.874768,399.412329,94428.8603,10.3522692,2.84E+02,0.93303966,1.03926419,2.29564E-05,1.02760012,0.897788713,7.093135008
875,C5H12O2-D1,NEOPENTYL-GLYCOL,104.14908,1007.10673,247.75964,69269.6625,9.10561718,210,4.21874829,5.46126071,0.012979288,52.1434856,0.772486155,3.355978445
876,C6H4BR2,M-DIBROMOBENZENE,235.90576,1947.36061,194.824173,55176.6415,3.02093273,218,3.52020385,3.53400843,0.035792267,7.39030005,0.99609379,3.574952759
877,C6H14O-E3,TERT-BUTYL-ETHYL-ETHER,102.17656,736.286595,214.347298,32994.9369,0.433711435,72.45,1.00858199,1.15790366,16.8351077,1.26664029,0.87104137,1.18393969
878,C2H5F,ETHYL-FLUORIDE,ERROR,ERROR,ERROR,ERROR,ERROR,ERROR,ERROR,ERROR,ERROR,ERROR,ERROR,ERROR
879,C2H3CLF2,"1-CHLORO-1,1-DIFLUOROETHANE",100.49532,1110.04774,None,None,None,-9.2,0.993683979,1.0739005,337.254516,1.08452245,0.925303582,-0.083095816
880,C12H27N-D0,DODECYLAMINE,185.35312,798.485548,382.866836,69461.9193,2.98292601,259.2,0.730982729,0.816603949,0.001636472,0.728402669,0.895149638,5.28486781
881,HE-3,HELIUM-3,3.016,35.8401786,None,None,None,-269.967,None,None,117,0.910176158,ERROR,ERROR
882,CH6N2,METHYL-HYDRAZINE,ERROR,ERROR,ERROR,ERROR,ERROR,ERROR,ERROR,ERROR,ERROR,ERROR,ERROR,ERROR
883,N2O4,NITROGEN-TETROXIDE,92.01108,1431.84119,None,None,None,21.15,0.648599084,0.971980339,120.796103,0.910176158,0.667296506,0.395615562
884,NF3,NITROGEN-TRIFLUORIDE,ERROR,ERROR,ERROR,ERROR,ERROR,ERROR,ERROR,ERROR,ERROR,ERROR,ERROR,ERROR
885,C14H14O,DIBENZYL-ETHER,198.26456,1040.36252,292.451392,77406.2878,4.76055019,288.3,1.20899725,1.09375725,0.000136834,1.79808841,1.105361587,6.097051115
886,C2H4CL2O,BIS-CHLOROMETHYL-ETHER,ERROR,ERROR,ERROR,ERROR,ERROR,ERROR,ERROR,ERROR,ERROR,ERROR,ERROR,ERROR
887,C12H27BO3,TRI-N-BUTYL-BORATE,ERROR,ERROR,ERROR,ERROR,ERROR,ERROR,ERROR,ERROR,ERROR,ERROR,ERROR,ERROR
888,C7H15BR,1-BROMOHEPTANE,179.1001,1134.48207,227.015788,48986.9432,1.170103,178.8,0.982779718,1.11305175,0.184778531,1.2326933,0.882959591,3.138145271
889,CH3F,METHYL-FLUORIDE,ERROR,ERROR,ERROR,ERROR,ERROR,ERROR,ERROR,ERROR,ERROR,ERROR,ERROR,ERROR
890,CH3BR,METHYL-BROMIDE,94.93882,1663.73062,None,None,None,3.51,2.06505643,2.60740811,219.027076,1.73834011,0.791995861,0.284712916
891,C7H16O-D1,ISOPROPYL-BUTYL-ETHER,116.20344,746.021174,236.45195,38738.3248,0.537030921,109.15,0.947551159,1.09185434,3.46242003,1.18030244,0.867836601,1.875928109
892,C5H6O3,GLUTARIC-ANHYDRIDE,114.10084,1266.24804,188.941668,72877.8131,16.0485731,289.54,3.63668385,2.33979494,0.000383889,3.12821784,1.554274602,5.738811333
893,C3H4O2-D0,BETA-PROPIOLACTONE,72.06356,1142.77011,117.315709,47032.2953,0.403881756,162,5.92990565,3.80115215,0.287759063,4.23001189,1.56002849,2.943681115
894,C5H8O2-D4,GAMMA-VALEROLACTONE,100.11732,1049.68611,185.875546,52996.0259,2.37846037,207.5,1.38026841,1.16511035,0.051482315,1.14148279,1.184667538,3.746376088
895,C4H5NO2,METHYL-CYANOACETATE,99.08924,1116.66758,192.49673,62340.6992,2.82207577,205.09,4.59192332,2.6198066,0.019293823,6.22392999,1.752771873,3.787922703
896,C9H10-E4,P-METHYL-STYRENE,118.1784,916.693071,212.055354,48742.1224,0.784748344,172.78,1.05488849,0.970329282,0.243640467,1.02125385,1.087144859,3.040172468
897,C9H12-3,1-METHYL-2-ETHYLBENZENE,120.19428,877.749594,214.081959,47446.6756,0.879454753,165.18,0.925383572,0.893725734,0.339113936,0.901138291,1.035422319,2.915203642
898,C9H12-4,1-METHYL-3-ETHYLBENZENE,120.19428,860.433737,191.903426,45720.2554,0.799791094,161.33,0.925383572,0.893725734,0.424290498,0.901138291,1.035422319,2.817885974
899,C9H12-5,1-METHYL-4-ETHYLBENZENE,120.19428,856.858324,215.880735,46996.0769,0.660178117,162.01,0.925383572,0.893725734,0.398028332,0.901138291,1.035422319,2.845635293
900,C10H14-E7,"1,2,3,4-TETRAMETHYL-BENZENE",134.22116,900.381564,252.082837,55823.1946,1.55860955,205.04,0.732591646,0.644835809,0.04419451,0.40584842,1.136090204,4.004853426
901,C10H14-E6,"1,2,3,5-TETRAMETHYL-BENZENE",134.22116,886.537617,234.902082,53462.8007,1.22636625,198,0.732591646,0.644835809,0.066390144,0.40584842,1.136090204,3.828118137
902,C10H14-E1,2-ETHYL-M-XYLENE,134.22116,886.472353,262.662681,52867.8502,1.18343507,190.04,0.804420505,0.751588083,0.097818541,0.622433889,1.070294385,3.540601934
903,C10H14-E2,2-ETHYL-P-XYLENE,134.22116,873.236029,218.440889,49883.9429,1.12660939,186.83,0.804420505,0.751588083,0.126243258,0.622433889,1.070294385,3.429814921
904,C10H14-D3,"1,2-DIMETHYL-3-ETHYLBENZENE",134.22116,888.135936,247.087005,53067.5889,1.18330752,193.96,0.804420505,0.751588083,0.082821776,0.622433889,1.070294385,3.612878578
905,C10H14-E4,4-ETHYL-O-XYLENE,134.22116,870.53501,255.850635,52658.7158,1.12777478,189.78,0.804420505,0.751588083,0.099700845,0.622433889,1.070294385,3.532324275
906,C10H14-E3,4-ETHYL-M-XYLENE,134.22116,872.325376,221.126108,50244.6263,1.01875408,188.44,0.804420505,0.751588083,0.118495936,0.622433889,1.070294385,3.45731966
907,C10H14-E5,5-ETHYL-M-XYLENE,134.22116,860.7888,250.68705,51363.6371,1.05986955,183.78,0.804420505,0.751588083,0.137318429,0.622433889,1.070294385,3.393294289
908,C10H14-D1,M-DIETHYLBENZENE,134.22116,859.988166,233.448821,50050.8451,0.992563432,181.136,0.88877022,0.896506472,0.160367367,0.909727721,0.991370668,3.237662462
909,C10H14-8,"1,4-DIETHYLBENZENE",134.22116,857.973913,251.989001,51637.6488,0.991932254,183.787,0.88877022,0.896506472,0.136848875,0.909727721,0.991370668,3.306537229
910,C10H14-5,1-METHYL-2-ISOPROPYLBENZENE,134.22116,872.605212,223.89133,47627.676,0.967020386,178.18,0.890094133,0.897888933,0.2195374,0.912466779,0.991318748,3.100633501
911,C10H14-6,1-METHYL-3-ISOPROPYLBENZENE,134.22116,857.679699,226.272698,48159.0818,0.815140894,175.08,0.890094133,0.897888933,0.232176703,0.912466779,0.991318748,3.076323377
912,C10H14-E8,1-METHYL-2-N-PROPYLBENZENE,134.22116,869.798068,240.47474,50545.9833,1.02706458,184.8,0.870580323,0.857295831,0.14084184,0.836894302,1.015495808,3.310864871
913,C10H14-E9,1-METHYL-3-N-PROPYLBENZENE,134.22116,857.178217,233.28515,50411.5925,1.02945388,181.8,0.870580323,0.857295831,0.152537409,0.836894302,1.015495808,3.276220196
914,C11H16-D2,PENTAMETHYLBENZENE,148.24804,912.558923,250.657358,56652.2837,3.79201862,231.4,0.65737748,0.570420974,0.015102964,0.266093875,1.152442687,4.601234872
915,C11H16-D3,"1,2-DIMETHYL-3-PROPYLBENZENE",148.24804,882.486782,255.896068,54650.4918,1.74414551,210.5,0.763908878,0.727128523,0.038706292,0.574934982,1.050583018,3.963347344
916,C12H12-E1,"2,6-DIMETHYLNAPHTHALENE",156.22728,998.995742,225.17491,60211.8125,3.95205514,262,1.01639819,0.924849103,0.004707757,1.05016725,1.098988134,4.721134841
917,C12H12-E2,"2,7-DIMETHYLNAPHTHALENE",156.22728,998.719456,256.542682,64162.0723,3.95452719,263,1.01639819,0.924849103,0.00452742,1.05016725,1.098988134,4.738098124
918,C12H12-E4,2-ETHYLNAPHTHALENE,156.22728,989.575294,276.028424,63906.4248,2.5893883,257.9,1.12776392,1.10773863,0.004233903,1.44106783,1.018077631,4.708148471
919,C6H10-D1,1-METHYLCYCLOPENTENE,82.1454,775.114527,145.923317,32638.23,0.375890273,75.49,1.01715627,1.19609969,15.488637,1.22442333,0.850394226,1.24895904
920,C6H10-D2,3-METHYLCYCLOPENTENE,82.1454,758.67777,145.782524,31124.1068,0.3105997,64.9,1.04487594,1.18650111,23.1949824,1.21708125,0.880636294,1.07269099
921,C8H16-5,"TRANS-1,3-DIMETHYLCYCLOHEXANE",112.21504,780.612706,213.307443,39280.8441,0.593789759,124.46,0.997129618,1.26316611,2.34893725,1.41715739,0.789389147,2.028307425
922,C8H16-4,"CIS-1,3-DIMETHYLCYCLOHEXANE",112.21504,762.007458,212.672064,38360.5823,0.785510708,120.09,0.997129618,1.26316611,2.86323069,1.41715739,0.789389147,1.942322499
923,C8H16-6,"CIS-1,4-DIMETHYLCYCLOHEXANE",112.21504,778.720409,212.299654,39105.2956,0.794288257,124.322,0.997129618,1.26316611,2.39056355,1.41715739,0.789389147,2.020678546
924,C9H18-1,N-PROPYLCYCLOHEXANE,126.24192,789.958318,243.515065,45080.432,0.931165627,156.747,0.940301294,1.18567936,0.55858998,1.34541426,0.793048547,2.647154553
925,C7H9N-1,"2,3-DIMETHYLPYRIDINE",ERROR,ERROR,ERROR,ERROR,ERROR,ERROR,ERROR,ERROR,ERROR,ERROR,ERROR,ERROR
926,C7H9N-2,"2,5-DIMETHYLPYRIDINE",ERROR,ERROR,ERROR,ERROR,ERROR,ERROR,ERROR,ERROR,ERROR,ERROR,ERROR,ERROR
927,C8H10O-3,P-ETHYLPHENOL,122.1668,1007.82932,197.173611,62393.7307,234.494273,217.99,1.49898689,1.20083068,0.009604876,1.44490636,1.248291633,4.386286764
928,C8H10O-1,O-ETHYLPHENOL,122.1668,1015.51562,268.280805,63546.7539,72.912421,204.52,1.49898689,1.20083068,0.020745839,1.44490636,1.248291633,4.051847523
929,C3H6S,TRIMETHYLENE-SULFIDE,74.14664,1017.53327,117.436092,35962.7227,6.08E-01,94.97,0.012112366,9.80883E-05,6.99710251,0.235149951,123.4843664,-1.775509672
930,C5H6S-E1,2-METHYLTHIOPHENE,98.16864,1013.58997,153.229989,39158.5968,0.664719474,112.56,1.20222408,1.05356271,3.30361549,1.07812099,1.141103485,1.920139856
931,C5H6S-E2,3-METHYLTHIOPHENE,98.16864,1016.62232,152.579262,39540.9506,0.638493179,115.4,1.20222408,1.05356271,2.94538672,1.07812099,1.141103485,1.969987025
932,C5H10S,2-METHYLTHIACYCLOPENTANE,102.2004,950.666045,155.642371,41021.5549,0.536196774,132.45,0.031016099,0.000858918,1.54640586,0.219118621,36.11064438,-0.146914381