Index,Solvent,cname,MW,RHO,CP,HV,MU,BP,GAMMA1,GAMMA2,VP,GAMMAS,S,alpha
402,C7H7NO2-D2,O-NITROTOLUENE,137.13812,1157.55658,201.345817,57267.4771,2.13721561,222.49,1.30404477,0.440411401,0.019893067,0.378851564,2.9609696,4.215824194
403,C7H7NO2-D1,M-NITROTOLUENE,137.13812,1153.53565,219.315269,58351.5561,2.06638257,231.85,1.30404477,0.440411401,0.014231734,0.378851564,2.9609696,4.361268105
404,C7H7NO2-D3,P-NITROTOLUENE,137.13812,1151.52682,354.472594,75468.0429,2.12055352,238.5,1.30404477,0.440411401,0.004152236,0.378851564,2.9609696,4.896243931
405,C7H7CL-D1,BENZYL-CHLORIDE,126.58528,1096.36155,134.235378,48832.966,1.11628421,179.4,1.52534257,1.26873014,0.173921104,1.46118554,1.202259268,3.147448068
406,C7H8SICL2,PHENYLMETHYLDICHLOROSILANE,ERROR,ERROR,ERROR,ERROR,ERROR,ERROR,ERROR,ERROR,ERROR,ERROR,ERROR,ERROR
407,C8H18O3-D1,DIETHYLENE-GLYCOL-DIETHYL-ETHER,162.22912,904.084785,286.623595,58399.7153,1.28148223,189,1.11184106,1.08861646,0.069333542,1.59837613,1.021334052,3.441388987
408,C10H20O2-D1,N-DECANOIC-ACID,172.2676,900.053012,368.300137,89206.8587,8.01772766,2.70E+02,1.02495658,1.14453534,6.863E-05,1.20045223,0.895522003,6.591906956
409,C8H24SI3O2,OCTAMETHYLTRISILOXANE,236.53386,814.636409,368.408911,47338.4289,0.827402988,152.55,0.897444952,1.0575763,0.534992144,54.4633153,0.848586482,1.008996691
410,C8H24O4SI4,OCTAMETHYLCYCLOTETRASILOXANE,296.61816,948.402993,410.0883,54657.5593,2.19831108,175,0.541513236,0.437402878,0.131708159,0.143466065,1.238019371,3.813656231
411,C9H7N-D1,ISOQUINOLINE,129.16132,1089.13453,193.627144,60298.4405,3.56978128,243.22,2.33437522,2.49508816,0.008393784,6.33115365,0.935588272,4.120781721
412,C10H9N,QUINALDINE,ERROR,ERROR,ERROR,ERROR,ERROR,ERROR,ERROR,ERROR,ERROR,ERROR,ERROR,ERROR
413,C12H10O,DIPHENYL-ETHER,ERROR,ERROR,ERROR,ERROR,ERROR,ERROR,ERROR,ERROR,ERROR,ERROR,ERROR,ERROR
414,C10H16-E1,CAMPHENE,ERROR,ERROR,ERROR,ERROR,ERROR,ERROR,ERROR,ERROR,ERROR,ERROR,ERROR,ERROR
415,C10H16-D4,TERPINOLENE,136.23704,856.795622,238.958442,50886.9295,0.746038516,186.85,0.819900471,0.9430123,0.117383972,0.937734237,0.869448332,3.381965244
416,C11H24O,1-UNDECANOL,172.31096,830.135681,427.219053,87469.7111,13.9935348,247.15,0.978694059,1.12904328,0.000416724,1.53221443,0.866834847,5.696678593
417,C16H34,N-HEXADECANE,226.44596,768.972264,500.644088,81022.905,3.05905822,286.864,0.616229863,0.766340429,0.000199342,0.642955973,0.804120257,6.225777535
418,C16H22O4,DIBUTYL-O-PHTHALATE,278.34828,970.174825,409.823348,95421.4619,16.4888605,3.40E+02,0.759384004,0.655614844,3.57392E-06,0.324431005,1.158277624,8.201517541
419,C18H34O4-D1,DIBUTYL-SEBACATE,314.46556,936.897789,546.195424,101206.143,8.22529622,3.49E+02,0.519533012,0.497673056,6.27248E-07,0.140356588,1.043924331,9.201408724
420,C20H30O2,ABIETIC-ACID,302.457,1059.55654,524.164707,126021.067,144.22228,3.77E+02,0.618948406,0.648420131,1.30771E-10,0.351626622,0.954548411,12.59839894
421,C18H14-2,M-TERPHENYL,230.30916,1087.30937,308.511937,87689.3517,29.3616476,3.75E+02,1.21873844,1.15612815,3.44568E-06,2.12413337,1.054155147,7.647686089
422,C9H12-7,"1,2,4-TRIMETHYLBENZENE",120.19428,873.034303,214.484344,47778.0363,0.886285253,169.38,0.829029356,0.743659624,0.286795161,0.606372313,1.114796782,3.08019948
423,C9H12-6,"1,2,3-TRIMETHYLBENZENE",120.19428,894.511725,211.353768,48498.8788,0.901214676,176.12,0.829029356,0.743659624,0.216459233,0.606372313,1.114796782,3.202395184
424,C7H16O3-D1,DIETHYLENE-GLYCOL-PROPYL-ETHER,148.20224,960.805347,291.564995,65691.1321,4.05988118,214.84,1.86881268,1.89794257,0.010578575,6.32351124,0.984651859,3.902034079
425,C7H16O3,DPG-MONOMETHYL-ETHER,148.20224,949.611752,249.198402,53618.165,3.71925768,188.3,2.05864988,2.02175465,0.070266528,8.16472271,1.018249113,2.996174974
426,C10H22O3-D3,DIPROPYLENE-GLYCOL-N-BUTYL-ETHER,190.28288,908.882388,317.049642,65415.3526,4.43549139,231.65,1.21512965,1.26630542,0.003823546,2.97217663,0.959586551,4.496134003
427,C3H9N-3,TRIMETHYL-AMINE,59.1112,628.362924,None,None,None,2.87,1.05033009,1.14977113,215.919443,1.16097102,0.913512318,0.11063473
428,C12H26O-2,DODECANOL,186.33784,830.503351,447.148774,92689.679,15.8327878,263.95,0.900600157,1.03506884,0.000119537,1.28951714,0.870087208,6.276175439
429,C4H8O2S,SULFOLANE,120.17232,1264.42473,196.68364,70468.6048,11.1152113,287.3,7.27661633,5.51926891,0.000558664,5.97559249,1.31840221,5.667486024
430,C2H7NO,MONOETHANOLAMINE,61.08372,1015.84577,158.050875,62690.0033,18.9372301,170,8.88534842,10.0436567,0.049332107,73.9632265,0.884672653,2.88888281
431,C15H24,N-NONYLBENZENE,204.35556,850.866032,372.611761,75369.2452,2.85518191,282.05,0.699243028,0.770238228,0.000398721,0.668498828,0.907826959,5.909991956
432,C2CLF5,CHLOROPENTAFLUOROETHANE,154.4667,1285.3436,None,None,None,-39.11,1.83713641,2.37058842,908.065472,8.9459862,0.774970634,-1.085752768
433,C2CL2F4-2,"1,2-DICHLORO-1,1,2,2-TETRAFLUORO",170.921,1456.67753,None,None,None,3.77,1.00658191,0.967564813,214.677396,0.961627552,1.040325047,0.12002331
434,CHCL2F,DICHLOROMONOFLUOROMETHANE,102.92274,1367.43656,None,None,None,8.9,1.00192404,0.993744293,182.834657,0.994184943,1.008231239,0.186885405
435,C17H36,N-HEPTADECANE,240.47284,772.194826,529.8272,85553.0965,3.57411632,3.02E+02,0.590706398,0.733620435,6.6194E-05,0.57518685,0.805193489,6.733980515
436,C8H18O2,DI-T-BUTYL-PEROXIDE,ERROR,ERROR,ERROR,ERROR,ERROR,ERROR,ERROR,ERROR,ERROR,ERROR,ERROR,ERROR
437,C4H10O2-D3,T-BUTYL-HYDROPEROXIDE,ERROR,ERROR,ERROR,ERROR,ERROR,ERROR,ERROR,ERROR,ERROR,ERROR,ERROR,ERROR
438,C6H10O-D0,MESITYL-OXIDE,98.1448,852.783988,200.158216,42587.7183,0.58418247,129.8,1.39563036,1.14653958,1.46578491,1.24806548,1.21725441,2.246217894
439,C4H6O2-D1,"2-BUTYNE-1,4-DIOL",86.09044,1144.97887,237.989171,95225.6193,11.4593993,2.38E+02,5.44867757,5.7444246,8.65655E-05,89.9584458,0.948515813,5.316996171
440,C8H16-D4,"2,4,4-TRIMETHYL-1-PENTENE",112.21504,710.771727,239.168565,35772.7252,0.290133009,101.44,0.864496308,1.00810447,5.95345244,1.0463315,0.857546349,1.658203812
441,C6H10O4-D3,ETHYLENE-GLYCOL-DIACETATE,146.143,1101.4448,250.85396,59243.7229,2.59021247,190.5,2.414676,1.62471609,0.010304542,2.17133929,1.486214124,4.31015754
442,C8H18O-D2,DIISOBUTYL-ETHER,130.23032,745.156399,254.970521,40817.3849,0.298936588,122.61,0.889857817,1.03098996,2.01292163,1.09565404,0.86311007,2.118890585
443,C7H9N-3,"3,4-DIMETHYLPYRIDINE",ERROR,ERROR,ERROR,ERROR,ERROR,ERROR,ERROR,ERROR,ERROR,ERROR,ERROR,ERROR
444,C8H11N-D1,"2,4,6-TRIMETHYLPYRIDINE",121.18208,913.323005,211.934866,49567.0388,0.90448371,170.55,1.32655857,1.64092255,0.253544953,2.80695585,0.808422415,2.811933992
445,CH4S,METHYL-MERCAPTAN,48.10876,862.29959,None,None,None,5.956,1.49147142,0.931728731,201.202854,0.945694162,1.600757141,0.139041103
446,C2H6O-1,DIMETHYL-ETHER,46.06904,654.533458,None,None,None,-24.84,1.80291732,1.73329683,592.799923,1.72486871,1.040166513,-0.32165478
447,CH3CL,METHYL-CHLORIDE,ERROR,ERROR,ERROR,ERROR,ERROR,ERROR,ERROR,ERROR,ERROR,ERROR,ERROR,ERROR
448,C5H9NO-D1,N-BUTYL-ISOCYANATE,ERROR,ERROR,ERROR,ERROR,ERROR,ERROR,ERROR,ERROR,ERROR,ERROR,ERROR,ERROR
449,C11H22-2,1-UNDECENE,154.29568,747.091211,303.53315,53264.0632,0.985204413,192.67,0.746383556,0.863001816,0.079008738,0.802281309,0.864869044,3.583146373
450,C12H14O4,DIETHYL-PHTHALATE,222.24076,1114.88798,300.82123,81977.28,10.5534307,2.98E+02,1.21161818,0.985772116,9.62869E-05,0.843951912,1.229105754,6.533028226
451,C6H10-E2,1-HEXYNE,82.1454,711.559216,183.639744,32585.2694,0.477675823,71.33,0.999082162,0.986702388,17.7157261,1.04630167,1.012546614,1.175306764
452,C7H12-D1,1-HEPTYNE,96.17228,728.639906,200.081249,36951.8466,0.535008549,99.78,0.931637047,0.933760144,5.56383726,0.983981982,0.997726293,1.681010228
453,C4H9N,PYRROLIDINE,71.1222,859.55107,140.3052,37264.1788,0.743373915,86.57,1.22825795,1.11266774,8.39158226,1.14496113,1.103885649,1.512867357
454,C5H8O2-D2,ALLYL-ACETATE,100.11732,922.249553,157.713115,37166.5047,0.494097852,104,1.62292752,1.20084899,4.68858253,1.26965382,1.351483437,1.753897969
455,C6H12-14,"2,3-DIMETHYL-2-BUTENE",84.16128,703.811765,177.670245,32618.8238,0.256194,73.2,0.993317035,1.21413109,16.662719,1.31138342,0.818129972,1.193926481
456,C9H18-2,ISOPROPYLCYCLOHEXANE,126.24192,798.286675,242.743392,44392.6272,0.991053318,154.76,0.941106734,1.18658613,0.639066091,1.3469151,0.7931213,2.588549732
457,C15H33N,TRIAMYLAMINE,227.43376,787.232647,454.088902,73044.2008,2.47000789,243,0.60009828,0.713338441,0.001468475,0.532546321,0.841253247,5.409208095
458,C2HF3O2,TRIFLUOROACETIC-ACID,114.02394,1477.99383,91.9637834,38500,0.857808375,71.8,28.672997,40.4816223,14.6504607,136.146816,0.708296639,0.756535598
459,C7H14-7,1-HEPTENE,98.18816,694.981948,211.183626,35629.4549,0.336414895,93.64,0.908730347,1.02801622,7.51658247,1.05140322,0.883964989,1.563346698
460,C6H10-1,"1,5-HEXADIENE",82.1454,688.24425,165.066223,29436.5158,0.244095704,59.46,0.977460547,0.961280891,29.5922136,0.951996034,1.016831351,0.982174177
461,C57H104O6,TRIOLEIN,885.44916,909.746084,1534.04823,219717.622,56.6008894,6.24E+02,0.197934796,0.202924703,1.06364E-19,0.000117938,0.975410056,24.65802377
462,C7H14O2-D6,N-PROPYL-N-BUTYRATE,130.18696,867.901113,220.984992,44726.0761,0.781626261,142.7,0.934239814,0.887334213,0.776827986,0.810433818,1.052861256,2.598181269
463,C5H8-5,1-PENTYNE,68.11852,689.958167,153.799743,27857.4555,0.352580547,40.18,1.07529332,1.04483421,58.0841929,1.09655279,1.029152099,0.664096341
464,C22H46,N-DOCOSANE,310.60724,789.439553,642.188346,105138.579,6.94901126,3.69E+02,0.488373046,0.60354842,2.74556E-07,0.316395215,0.809169621,9.290987782
465,C8H10O-4,PHENETOLE,122.1668,960.273326,193.890885,50878.1555,1.15465218,170,1.41143522,1.37301108,0.205843353,1.85752822,1.027985309,3.004338234
466,C6H10O2-D8,SEC-BUTENYL-ACETATE,114.1442,895.532393,191.990162,42005.8786,0.590012939,112.5,1.32572689,1.03595941,2.70029659,1.05113791,1.279709299,2.011408032
467,C10H20O2-D4,N-OCTYL-ACETATE,172.2676,863.953453,326.271393,60058.3838,1.658203,211.3,0.774518683,0.743812159,0.020681312,0.556496427,1.041282632,4.259559261
468,C9H14O,ISOPHORONE,138.20956,920.750247,231.321427,51606.4526,2.32959253,215.2,0.966191767,0.873104204,0.050268323,0.803856919,1.106616785,3.783729392
469,C4H10O2-D2,"1,4-BUTANEDIOL",90.1222,1081.83948,213.016657,79333.7877,70.1260991,228,5.96578297,8.01576305,0.000625497,76.1565936,0.744256402,4.675148273
470,C57H98O6,TRILINOLEIN,ERROR,ERROR,ERROR,ERROR,ERROR,ERROR,ERROR,ERROR,ERROR,ERROR,ERROR,ERROR
471,C6H12O-D3,2-HEXANONE,100.16068,810.542479,214.532382,43329.9861,0.582736401,127.55,1.30488147,1.12261955,1.51935398,1.17451534,1.16235413,2.2478514
472,C7H14O2-D2,ETHYL-ISOVALERATE,130.18696,860.867285,219.255018,43733.6287,0.747785124,134.3,0.934690056,0.887534415,1.07251819,0.810678724,1.053131056,2.458068221
473,C2H2CL4-D1,"1,1,1,2-TETRACHLOROETHANE",167.84868,1532.95136,163.134765,41778.0973,1.42910853,130.5,1.2419032,1.00558495,1.60373073,1.11257714,1.235005755,2.200093642
474,C2HCL5,PENTACHLOROETHANE,202.29344,1674.72029,204.60316,46365.7961,2.21071868,159.88,1.33243111,1.14796821,0.489281479,1.32415782,1.160686418,2.697567796
475,C6H8N2O,BIS-CYANOETHYL-ETHER,124.1424,1045.15816,294.920627,90064.3605,8.45001876,3.06E+02,3.93555881,2.4067798,2.50283E-05,16.1877513,1.635196876,6.222954117
476,C4H6O2-D2,GAMMA-BUTYROLACTONE,86.09044,1123.10524,108.364469,50842.5845,1.74569759,204,1.71312905,1.36140446,0.059629792,1.28375771,1.258354222,3.699177271
477,C6H12O-N13,"2,5-DIMETHYLTETRAHYDROFURAN",ERROR,ERROR,ERROR,ERROR,ERROR,ERROR,ERROR,ERROR,ERROR,ERROR,ERROR,ERROR
478,C8H18-3,3-METHYLHEPTANE,114.23092,711.123419,247.615204,39866.7948,0.461595518,118.93,0.917722109,1.16588742,2.61498463,1.3100331,0.787144705,1.981041667
479,C8H18O4,TRIETHYLENE-GLYCOL-DIMETHYL-ETHE,178.22852,980.397247,321.895515,69327.0431,3.06449822,216,1.65149639,1.39579279,0.005375189,4.26246234,1.18319596,4.233903133
480,C7H9N-6,O-TOLUIDINE,107.1552,990.805658,205.599062,57576.7272,3.80583583,200.34,2.20052795,1.91542888,0.034690505,4.60246432,1.148843464,3.528201437
481,C24H38O4,DIOCTYL-PHTHALATE,390.56332,943.395887,626.4429,120497.225,56.0689825,3.84E+02,0.461487853,0.428702519,9.61967E-09,0.067080181,1.07647572,11.27153817
482,C2H2BR4,"1,1,2,2-TETRABROMOETHANE",345.65388,2953.9595,159.625868,61649.1215,7.4833439,243.5,5.71585032,7.49518631,0.006101273,23.7412878,0.762602834,4.16299415
483,C19H36O2,METHYL-OLEATE,296.49364,869.71535,623.445385,105774.382,5.40612955,3.44E+02,0.495647019,0.517983397,8.3786E-07,0.171600931,0.956878197,9.005761023
484,C6H12O3-D2,PARALDEHYDE,132.15948,982.575795,206.160133,44583.2983,1.07204146,124,1.21546533,1.24770956,1.4602548,1.52545346,0.974157263,2.197422358
485,C19H40,N-NONADECANE,268.5266,779.99704,592.837395,96285.834,4.63635483,3.30E+02,0.545231041,0.675609832,6.68002E-06,0.456206969,0.807020584,7.794892813
486,C9H20O3,DPG-N-PROPYL-ETHER,176.256,921.284775,327.075225,59711.1805,4.06187071,212.3,1.37508796,1.42274178,0.017587165,3.77556979,0.966505644,3.780084215
487,C26H42O4,DI-N-NONYL-PHTHALATE,418.61708,924.30405,671.830078,129385.743,31.3078694,4.38E+02,0.423233408,0.398498659,6.01769E-10,0.046506849,1.062069842,12.60261636
488,C3H6O3-D1,LACTIC-ACID,90.07884,1224.404,308.084635,90900.0069,42.0243139,216.85,15.7486632,24.0076486,0.000473409,84.898157,0.655985243,5.225351723
489,C9H16-D1,1-NONYNE,124.22604,753.657302,275.27391,48209.2398,1.00426701,150.7,0.819807397,0.842314959,0.494327432,0.843475648,0.973278924,2.754523713
490,C4H6O4-1,DIMETHYL-OXALATE,118.08924,1138.48466,158.013903,52778.2275,1.7166077,163.45,3.7645623,3.12059613,0.192736362,2.31733351,1.206359985,3.293421827
491,C7F14,PERFLUOROMETHYLCYCLOHEXANE,350.0546,1847.08924,341.087337,33586.9474,1.69535701,76.35,4.27029919,7.28792248,14.1061323,29317.8852,0.585941906,-2.304800388
492,C6H12O-E2,3-METHYL-2-PENTANONE,100.16068,799.57034,213.224105,40758.3296,0.581924373,117.4,1.30617014,1.1233964,2.55343754,1.17546254,1.162697459,2.022335456
493,C6H12O-E3,"3,3-DIMETHYL-2-BUTANONE",100.16068,822.186429,216.873422,38570.755,0.666866041,106.113,1.2848144,1.11175424,4.2671756,1.16314563,1.155664043,1.799370646
494,C7H14O,DIISOPROPYL-KETONE,ERROR,ERROR,ERROR,ERROR,ERROR,ERROR,ERROR,ERROR,ERROR,ERROR,ERROR,ERROR
495,C5H12O-2,2-METHYL-1-BUTANOL,88.14968,815.179127,244.747653,55290.1708,4.32021251,128.7,2.10614422,2.5665707,0.488672851,4.58743901,0.820606352,2.507901177
496,C5H12O-5,"2,2-DIMETHYL-1-PROPANOL",88.14968,727.46958,231.650421,51135.4144,6.07304683,113.1,2.09187092,2.54501289,1.27706867,4.63534135,0.821949047,2.082530474
497,C5H12O-D3,2-PENTANOL,88.14968,805.288676,246.142962,54409.328,3.37978681,119.05,2.10614422,2.5665707,0.813022528,4.58743901,0.820606352,2.286816809
498,C5H12O-D4,3-PENTANOL,88.14968,816.932883,225.856666,52369.0397,4.6840678,115.3,2.10614422,2.5665707,1.10442458,4.58743901,0.820606352,2.153783325
499,C5H12O-D1,3-METHYL-2-BUTANOL,88.14968,815.70662,240.577067,51631.4339,3.85314526,110.73,2.10750459,2.56844595,1.39218512,4.58739029,0.820536866,2.053544213
500,C5H12O-4,2-METHYL-2-BUTANOL,88.14968,805.531969,255.820988,49664.4834,3.51981719,102.05,2.09187092,2.54501289,2.27016341,4.63534135,0.821949047,1.832687606
501,C6H14O-D6,3-METHYL-3-PENTANOL,102.17656,823.28568,268.423814,48412.3785,3.0393665,120.91,1.7476682,2.09410878,1.333642,3.80054053,0.834564191,2.065251065
502,C6H14O-D8,3-HEXANOL,102.17656,814.843497,277.218908,56808.5658,4.96674643,133,1.76069887,2.1115237,0.41465156,3.77574782,0.833852289,2.579046137
503,C6H14O-E1,2-HEXANOL,102.17656,811.73561,259.52453,57038.0789,4.27669336,139.25,1.76069887,2.1115237,0.306634108,3.77574782,0.833852289,2.710108979
504,C3H6CL2-D2,"1,3-DICHLOROPROPANE",112.98604,1182.04039,165.684775,40431.2936,0.899774518,120.4,1.24806456,0.870066809,2.43434732,0.862945154,1.434446812,2.066323326
505,CH2BR2,DIBROMOMETHANE,173.83488,2477.98498,110.380963,37328.828,0.984958432,96.95,4.37807254,5.74646098,6.0270169,4.55677384,0.761872839,1.769777039
506,C7H7NO3,O-NITROANISOLE,153.13752,1243.94637,120.674765,73667.8364,3.08241078,273,1.89631419,0.682441026,0.000465057,0.724945237,2.778722436,5.755390241
507,C3H6BR2-N1,"1,3-DIBROMOPROPANE",201.88864,1971.07817,149.228936,46778.6631,1.89754971,166.2,2.320798,2.73879975,0.367971315,3.20879956,0.847377761,2.814540186
508,CH3NO,FORMAMIDE,ERROR,ERROR,ERROR,ERROR,ERROR,ERROR,ERROR,ERROR,ERROR,ERROR,ERROR,ERROR
509,C13H10O,BENZOPHENONE,ERROR,ERROR,ERROR,ERROR,ERROR,ERROR,ERROR,ERROR,ERROR,ERROR,ERROR,ERROR
510,C12H11N,DIPHENYLAMINE,ERROR,ERROR,ERROR,ERROR,ERROR,ERROR,ERROR,ERROR,ERROR,ERROR,ERROR,ERROR
511,C7H7CL-D2,O-CHLOROTOLUENE,126.58528,1078.39579,174.50151,45722.1538,0.955956308,159.15,1.23677821,1.22890771,0.469929844,1.65465615,1.006404468,2.647914945
512,C9H10O2,ETHYL-BENZOATE,150.1772,1042.0967,171.709425,52395.2555,1.98237168,213.4,1.39160169,1.18397506,0.038059357,1.26359217,1.175364023,3.840410639
513,C3H7BR-D1,1-BROMOPROPANE,122.99258,1343.143,141.968091,32202.1649,0.494586447,70.97,1.49210758,1.73342452,18.5092253,1.65650088,0.860786012,1.201461483
514,C6H14O2-D7,PROPYLENE-GLYCOL-N-PROPYL-ETHER,118.17596,781.415572,255.977495,52892.9142,2.42390278,148.7,1.93880551,2.12525927,0.339157883,5.16698318,0.912267758,2.532909416
515,C6F12,PERFLUOROCYCLOHEXANE,300.0468,1863.58141,418.985319,34348.449,1.19139561,52.55,4.65064385,7.98019122,32.8466919,7657.67527,0.582773485,-2.049438824
516,C4H7NO-E1,2-METHACRYLAMIDE,ERROR,ERROR,ERROR,ERROR,ERROR,ERROR,ERROR,ERROR,ERROR,ERROR,ERROR,ERROR
517,C5H10O2-D3,ISOVALERIC-ACID,102.1332,934.71992,174.782735,46959.1108,2.14738288,176.53,2.18977922,2.57870879,0.050021528,2.74878828,0.849176622,3.722240515
518,C6H10O3-D1,ETHYLACETOACETATE,130.1436,1024.79076,201.075846,54181.7665,1.58942809,180.8,2.18598531,1.53266163,0.094672829,2.1988511,1.426267395,3.31616157
519,C5H10O2-5,METHYL-BUTYRATE,102.1332,894.450034,198.155181,39645.4237,0.541437853,102.75,1.15141869,1.03259565,4.2927694,1.00809142,1.115072187,1.826829273
520,C5H12O2-D2,"1,5-PENTANEDIOL",104.14908,1065.67391,232.870152,84125.571,100.104721,239,4.27268515,5.55250877,0.000302549,51.8407503,0.76950534,4.99815814
521,C16H34O,1-HEXADECANOL,242.44536,830.629969,541.663654,106412.679,29.4307236,3.25E+02,0.685211894,0.780220768,2.39503E-06,0.655311599,0.878228217,8.14559437
522,C18H38O,1-OCTADECANOL,270.49912,829.817239,584.789497,112698.513,34.3916419,3.50E+02,0.613059439,0.696305449,3.84615E-07,0.469583769,0.880446132,9.035196403
523,C11H24,N-UNDECANE,156.31156,737.44434,351.073708,56924.4858,1.0870516,195.928,0.780865288,0.9808547,0.055621971,1.05386107,0.796106995,3.672711403
524,C9H20-D1,2-METHYLOCTANE,128.2578,709.580784,267.005667,44829.259,0.605432262,143.3,0.868878723,1.09882271,0.799778392,1.23025616,0.790736044,2.497098872
525,C8H18-15,"2,3,4-TRIMETHYLPENTANE",114.23092,721.250803,245.563019,37670.1376,0.562020701,113.47,0.918480995,1.16672183,3.61553361,1.31065105,0.787232202,1.840444301
526,C15H32,N-PENTADECANE,212.41908,763.968898,447.267373,76117.8089,2.54252714,270.685,0.643889121,0.801940109,0.000654872,0.716213934,0.802914225,5.682079418
527,C4H6O3-D1,PROPYLENE-CARBONATE,102.08984,1195.05713,182.106951,62383.2418,2.49812427,241.7,3.27244575,2.17045739,0.00655353,2.95250509,1.50772172,4.499021793
528,C14H22,N-OCTYLBENZENE,190.32868,851.820669,351.752997,70450.4689,2.28821699,264.4,0.737044993,0.806317703,0.001492382,0.742987067,0.914087574,5.310781349
529,C3H8O2-3,"1,3-PROPANEDIOL",76.09532,730.505662,175.42576,71966.0901,39.2157206,214.22,9.22375109,12.9909276,0.002663287,116.915525,0.710014818,4.069486441
530,C14H16,1-N-BUTYLNAPHTHALENE,184.28104,973.224469,317.770031,73593.89,4.39164982,289.39,0.932792371,0.949502156,0.000437799,1.12336188,0.98240153,5.734837682
531,C12H12-E3,1-ETHYLNAPHTHALENE,156.22728,1005.74895,244.772925,64229.5486,3.61166329,258.33,1.12776392,1.10773863,0.00332067,1.44106783,1.018077631,4.813663564
532,C6H14O2-D3,"1,6-HEXANEDIOL",118.17596,1036.13009,278.559972,91727.203,123.118364,2.53E+02,3.27168982,4.1474135,8.17588E-05,36.4455886,0.788850646,5.592734389