Index,Solvent,cname,MW,RHO,CP,HV,MU,BP,GAMMA1,GAMMA2,VP,GAMMAS,S,alpha
1634,C2H5SICL3,ETHYLTRICHLOROSILANE,ERROR,ERROR,ERROR,ERROR,ERROR,ERROR,ERROR,ERROR,ERROR,ERROR,ERROR,ERROR
1635,C4H12CLN,SEC-BUTYLAMINE-HYDROCHLORIDE,ERROR,ERROR,ERROR,ERROR,ERROR,ERROR,ERROR,ERROR,ERROR,ERROR,ERROR,ERROR
1636,NACHO2,SODIUM-FORMATE,ERROR,ERROR,ERROR,ERROR,ERROR,ERROR,ERROR,ERROR,ERROR,ERROR,ERROR,ERROR
1637,C17H34,N-DODECYLCYCLOPENTANE,238.45696,788.311405,433.265927,79364.9722,4.45779974,310.95,0.624091903,0.773071512,0.000129229,0.659402182,0.807288709,6.406846375
1638,C18H36-2,N-TRIDECYLCYCLOPENTANE,ERROR,ERROR,ERROR,ERROR,ERROR,ERROR,ERROR,ERROR,ERROR,ERROR,ERROR,ERROR
1639,C7H4CL2O,M-CHLOROBENZOYL-CHLORIDE,ERROR,ERROR,ERROR,ERROR,ERROR,ERROR,ERROR,ERROR,ERROR,ERROR,ERROR,ERROR
1640,C19H38,N-TETRADECYLCYCLOPENTANE,266.51072,958.67857,481.00273,84679.8674,6.12976031,3.26E+02,0.573549195,0.708967886,3.93793E-05,0.525988619,0.808991784,6.98351904
1641,C8H23N5,TETRAETHYLENEPENTAMINE,189.30432,994.659467,416.344409,116394.214,96.7391687,3.33E+02,1.71086885,1.25069736,1.06561E-07,5.06811107,1.367931927,8.813844168
1642,C10H16O,CAMPHOR,152.23644,967.657259,270.760277,60717.03,10.7314198,207.42,0.95726566,0.891413335,0.08880322,0.842643908,1.073874063,3.525142786
1643,C3H3NO-D1,ISOXAZOLE,ERROR,ERROR,ERROR,ERROR,ERROR,ERROR,ERROR,ERROR,ERROR,ERROR,ERROR,ERROR
1644,C10H20O2-D2,2-ETHYLHEXYL-ACETATE,172.2676,868.987891,340.594826,58706.6746,1.42455834,199.77,0.774870685,0.744008542,0.045037809,0.556822127,1.041480899,3.921420643
1645,C15H16O,P-CUMYLPHENOL,212.29144,1076.24168,360.679505,91501.9556,5.07075969,3.35E+02,1.05627954,0.836602848,9.23465E-06,0.931348878,1.262581812,7.437123139
1646,BI,BISMUTH,ERROR,ERROR,ERROR,ERROR,ERROR,ERROR,ERROR,ERROR,ERROR,ERROR,ERROR,ERROR
1647,FE,IRON,ERROR,ERROR,ERROR,ERROR,ERROR,ERROR,ERROR,ERROR,ERROR,ERROR,ERROR,ERROR
1648,CLHO3S,CHLOROSULFONIC-ACID,ERROR,ERROR,ERROR,ERROR,ERROR,ERROR,ERROR,ERROR,ERROR,ERROR,ERROR,ERROR
1649,C8H6O2-D1,PHTHALIDE,134.13444,1209.64997,141.269445,63033.7062,1.13820714,290,2.40911491,1.8911985,0.001166993,2.13348967,1.273856187,5.329714742
1650,C7H14O-D9,TRANS-4-METHYLCYCLOHEXANOL,114.18756,908.214444,234.643462,61146.3296,38.2177246,171,1.760128,2.10303966,0.060593127,3.65737727,0.836944749,3.426390797
1651,AIR,AIR,28.9509087,338.254201,None,None,None,-194.48,None,None,3774,0.910176158,ERROR,ERROR
1652,C21H42,N-HEXADECYLCYCLOPENTANE,294.56448,795.487266,533.961522,95666.8275,8.08306495,3.64E+02,0.530294408,0.65438305,3.09419E-06,0.41491948,0.81037308,8.156457672
1653,C3H6O-5,VINYL-METHYL-ETHER,58.08004,743.037949,None,None,None,5.5,1.86135583,1.54040621,207.293675,1.64011137,1.208353886,0.105312331
1654,C3H6O3,METHOXYACETIC-ACID,90.07884,1196.78565,173.880656,65136.4304,1.34307301,205.11,10.997016,9.4732647,0.012001919,19.6770809,1.160847538,4.052424781
1655,C4H6CL2-E3,"1,4-DICHLORO-CIS-2-BUTENE",124.99704,1189.25203,155.376383,45691.3643,0.889439436,152.5,1.39308639,0.942360279,0.548091287,0.926146824,1.478294895,2.717820692
1656,C4H6CL2,"1,4-DICHLORO-TRANS-2-BUTENE",124.99704,1182.31603,151.9887,46165.0723,0.889175925,156.111,1.39308639,0.942360279,0.464468573,0.926146824,1.478294895,2.789717257
1657,C4H6CL2-E2,"3,4-DICHLORO-1-BUTENE",124.99704,1146.0813,186.982889,42744.1499,0.888197079,114.85,1.33839008,0.941842913,2.38727015,0.925729377,1.421033233,2.078729321
1658,C4H6O-D2,DIVINYL-ETHER,ERROR,ERROR,ERROR,ERROR,ERROR,ERROR,ERROR,ERROR,ERROR,ERROR,ERROR,ERROR
1659,C4H6O2-D3,CIS-CROTONIC-ACID,86.09044,1027.63742,171.240137,57506.0675,1.38262168,171.9,2.46753606,2.53651393,0.07833289,2.92229714,0.972806035,3.49370519
1660,C4H6O2-D4,TRANS-CROTONIC-ACID,86.09044,1018.30212,185.999566,64091.8104,1.37838115,185,2.46753606,2.53651393,0.030689564,2.92229714,0.972806035,3.900658625
1661,C5H10O2-D7,TERT-BUTYL-FORMATE,102.1332,872.078775,186.117059,34570.3641,0.464410155,82.8,1.36514683,1.17951553,11.1382313,1.4197344,1.157379276,1.321816786
1662,C5H10O2-D6,SEC-BUTYL-FORMATE,102.1332,878.729664,179.884802,37383.4851,0.500628339,93.4,1.38192158,1.18265918,6.51147634,1.42459577,1.168486749,1.55462495
1663,C5H10O2-D4,2-METHYLBUTYRIC-ACID,102.1332,931.831751,197.190184,58349.7857,1.77354497,177,2.18977922,2.57870879,0.06524315,2.74878828,0.849176622,3.606862548
1664,C,CARBON-GRAPHITE,ERROR,ERROR,ERROR,ERROR,ERROR,ERROR,ERROR,ERROR,ERROR,ERROR,ERROR,ERROR
1665,C9H11NO2,L-PHENYLALANINE,165.19188,1126.28536,292.015878,104835.857,193.133587,3.55E+02,2.63347599,2.27510727,5.40818E-06,7.07236488,1.157517285,7.223522783
1666,C3H3F5O,"2-DIFLUOROMETHOXY-1,1,1-TRIFLURO",ERROR,ERROR,ERROR,ERROR,ERROR,ERROR,ERROR,ERROR,ERROR,ERROR,ERROR,ERROR
1667,N2O3,NITROGEN-TRIOXIDE,ERROR,ERROR,ERROR,ERROR,ERROR,ERROR,ERROR,ERROR,ERROR,ERROR,ERROR,ERROR
1668,C3H9GA,TRIMETHYLGALLIUM,ERROR,ERROR,ERROR,ERROR,ERROR,ERROR,ERROR,ERROR,ERROR,ERROR,ERROR,ERROR
1669,C6H14S-D4,METHYL-PENTYL-SULFIDE,118.24316,838.889464,226.033918,46458.3068,0.609047656,145,0.030338741,0.000971411,0.667882982,0.111582026,31.23161511,0.564244956
1670,C8H18S-D2,DI-TERT-BUTYL-SULFIDE,ERROR,ERROR,ERROR,ERROR,ERROR,ERROR,ERROR,ERROR,ERROR,ERROR,ERROR,ERROR
1671,CH3CLHG,CHLOROMETHYL-MERCURY,ERROR,ERROR,ERROR,ERROR,ERROR,ERROR,ERROR,ERROR,ERROR,ERROR,ERROR,ERROR
1672,SCL2,SULFUR-DICHLORIDE,ERROR,ERROR,ERROR,ERROR,ERROR,ERROR,ERROR,ERROR,ERROR,ERROR,ERROR,ERROR
1673,C12H24-1,N-HEPTYLCYCLOPENTANE,168.32256,712.999813,309.855988,58751.0598,1.70041391,224.15,0.795228562,0.993312739,0.018292271,1.08163254,0.800582265,4.149875102
1674,C7H12O2-D4,CYCLOHEXYL-FORMATE,128.17108,990.125193,231.438135,48499.7604,1.17126453,162.5,1.23801297,1.09051105,0.351438397,1.25377245,1.135259446,2.842698599
1675,C14H22-D2,"1,4-DI-TERT-BUTYLBENZENE",190.32868,855.578221,342.177614,62333.4035,2.99340629,237.28,0.737157989,0.857077381,0.007861739,0.826774793,0.860083355,4.569250663
1676,C4H6O2S,SULFOLENE,ERROR,ERROR,ERROR,ERROR,ERROR,ERROR,ERROR,ERROR,ERROR,ERROR,ERROR,ERROR
1677,C10H16O4,DIPROPYL-MALEATE,200.23464,1019.71793,359.643795,75996.1977,2.10553392,247.85,0.953221934,0.783740966,0.00091686,0.498889487,1.216246152,5.683001737
1678,C6H14O6,SORBITOL,182.17356,1959.17601,475.616264,205624.661,4562343.24,4.35E+02,17.3457642,27.3456034,1.01472E-15,4731853.25,0.634316382,12.20464709
1679,SIC,SILICON-CARBIDE,ERROR,ERROR,ERROR,ERROR,ERROR,ERROR,ERROR,ERROR,ERROR,ERROR,ERROR,ERROR
1680,C2H2O2,GLYOXAL,58.03668,1131.34321,87.0791742,31975.0919,0.675189144,50.4,99.5309682,9.6441996,36.6577979,23.8450273,10.32029327,0.491838454
1681,C9H12O-D1,1-PHENYL-1-PROPANOL,136.19368,992.338582,275.37909,63163.8166,13.1413461,219,1.73194308,1.74242682,0.012017043,3.66765576,0.993983254,4.046104818
1682,C6H8N2O2-N1,BUTYLENEDIISOCYANATE,ERROR,ERROR,ERROR,ERROR,ERROR,ERROR,ERROR,ERROR,ERROR,ERROR,ERROR,ERROR
1683,C4H10O2-N2,ISOBUTENE-GLYCOL,90.1222,993.580928,218.083919,68271.5995,67.2440003,177.5,5.87819558,7.85326242,0.02007633,76.8260143,0.748503649,3.15599395
1684,C6H12N2-E2,TRIETHYLENEDIAMINE,112.17476,873.077561,209.195638,56860.3533,0.55578698,174,1.14349455,1.18536481,0.205314659,1.30546933,0.964677322,3.094801859
1685,C8H18O-D1,DI-SEC-BUTYL-ETHER,130.23032,759.174339,262.279295,40848.3566,0.650347942,121.05,0.876568608,1.05375733,2.14405998,1.12208124,0.831850544,2.090615837
1686,C20H40,N-PENTADECYLCYCLOPENTANE,280.5376,757.252691,509.163779,91861.4307,7.06057032,3.52E+02,0.551106619,0.680616613,7.71955E-06,0.467749747,0.809716672,7.724433736
1687,C2H2F4O,BIS-DIFLUOROMETHYL-ETHER,ERROR,ERROR,ERROR,ERROR,ERROR,ERROR,ERROR,ERROR,ERROR,ERROR,ERROR,ERROR
1688,C8H16O2-D5,N-HEPTYL-FORMATE,144.21384,873.969262,284.926402,54679.5312,1.14446479,178.1,0.974671143,0.924006171,0.169944784,0.921602909,1.054831855,3.219959655
1689,C10H6O8,PYROMELLITIC-ACID,254.15284,1511.79929,360.037985,186501.98,144681.381,4.49E+02,49.6932145,75.0944767,1.16463E-12,4519.08895,0.661742603,12.60350603
1690,C12F26,PERFLUORO-N-DODECANE,638.0904,2015.17882,579.388888,56674.0883,4.0926821,178,2.84695048,4.78806994,0.202455204,76058895.6,0.594592501,-4.058182014
1691,C16F34,PERFLUORO-N-HEXADECANE,838.1216,2024.40874,749.097528,71204.9018,8.46616189,239,2.28233508,3.82227005,0.023571957,11537995200,0.597115078,-5.403068174
1692,C8H18O4-D1,TRIETHYLENE-GLYCOL-ETHYL-ETHER,178.22852,1017.25672,269.143306,69837.1687,6.72081829,256,1.82848176,1.75267305,0.000735879,8.09348404,1.043253195,4.917895725
1693,CN4O8,TETRANITROMETHANE,ERROR,ERROR,ERROR,ERROR,ERROR,ERROR,ERROR,ERROR,ERROR,ERROR,ERROR,ERROR
1694,C4HF7O2,PERFLUOROBUTANOIC-ACID,214.03954,1643.27432,270.881241,53197.5729,1.61828598,120.9,12.4674839,17.9078146,0.819904892,2540.59788,0.696203539,0.383479641
1695,C7HF13O2,TRIDECAFLUOROHEPTANOIC-ACID,364.06294,1779.57771,439.788065,73652.4707,2.32282424,176,6.79360532,10.1754157,0.018385213,146721.762,0.667648922,0.025725433
1696,C7H4CLF3,P-CHLOROBENZOTRIFLUORIDE,180.55666,1334.38019,197.18717,43602.3048,0.905609057,138.7,1.73475397,2.48796305,1.0115463,10.5055936,0.697258735,1.818574024
1697,C4H8CL2-D2,"2,3-DICHLOROBUTANE",127.01292,1106.22013,164.250797,38811.4706,1.191774,119.5,0.951511653,0.827835752,2.70071117,0.783446551,1.149396666,2.041593125
1698,C11H16-D6,"1,2,4-TRIMETHYL-5-ETHYLBENZENE",148.24804,882.093799,257.106335,55411.3305,1.86045395,212,0.712788967,0.650164596,0.034295323,0.416911411,1.096320795,4.1068811
1699,C2H2F3NO,TRIFLUOROACETAMIDE,113.03922,1883.72736,166.358499,54102.7254,4.49133975,162.5,5.39659749,6.09359357,0.17679384,25.3697223,0.88561822,2.582227102
1700,C11H22-N5,PENTYLCYCLOHEXANE,ERROR,ERROR,ERROR,ERROR,ERROR,ERROR,ERROR,ERROR,ERROR,ERROR,ERROR,ERROR
1701,C8H16O-D3,4-OCTANONE,128.21444,814.119182,268.938016,51852.5088,0.924062042,163,0.932315086,0.878150532,0.233409407,0.813857573,1.061680261,3.114038665
1702,C14H22-D1,"1,2,3,5-TETRAETHYLBENZENE",190.32868,880.589951,372.075899,71271.2821,4.10026944,248.85,0.653213055,0.654278148,0.001809785,0.428367525,0.99837211,5.375455403
1703,C11H16-D5,"1,2,4-TRIMETHYL-3-ETHYLBENZENE",148.24804,891.215993,243.934459,52331.9579,1.97849979,216.6,0.712788967,0.650164596,0.041594497,0.416911411,1.096320795,4.023080123
1704,C3H2F6-D1,"1,1,1,3,3,3-HEXAFLUOROPROPANE",152.03928,1360.45434,None,None,None,-0.7,3.50907458,6.06868989,269.021804,95.3836369,0.578226049,-1.177029953
1705,C9H10-E5,CIS-1-PROPENYLBENZENE,118.1784,905.23195,189.553569,49359.8253,0.68364492,178.88,1.09292272,1.10314085,0.216665942,1.21507596,0.990737239,3.071373349
1706,C9H10-E6,TRANS-1-PROPENYLBENZENE,118.1784,904.170051,192.380757,49131.517,0.683438696,178.26,1.09292272,1.10314085,0.185757466,1.21507596,0.990737239,3.138217721
1707,C8H10O2-N2,4-METHYL-2-METHOXYPHENOL,138.1662,1084.91067,215.59756,63866.2843,21.0840191,219.5,2.4109001,1.86031101,0.008614604,5.90466367,1.295966151,4.01229153
1708,C9H18O-D4,4-NONANONE,142.24132,819.511303,285.974903,55069.2282,1.15709193,187.5,0.858290886,0.82068046,0.075868231,0.719272205,1.045828343,3.626357317
1709,CF8S,CF8S,ERROR,ERROR,ERROR,ERROR,ERROR,ERROR,ERROR,ERROR,ERROR,ERROR,ERROR,ERROR
1710,C6H15GA,TRIETHYL-GALLIUM,ERROR,ERROR,ERROR,ERROR,ERROR,ERROR,ERROR,ERROR,ERROR,ERROR,ERROR,ERROR
1711,C10H22O4-D1,TRIETHYLENE-GLYCOL-BUTYL-ETHER,206.28228,988.911748,308.177534,72048.4342,9.52528791,278,1.35161735,1.33218888,0.000286778,4.54371775,1.01458387,5.458745656
1712,C9H20-E4,"2,4-DIMETHYL-3-ETHYLPENTANE",128.2578,734.044942,260.049598,41572.9572,0.696779776,136.72,0.869604619,1.09962255,1.33585901,1.2310835,0.790821013,2.274331963
1713,C9H20-N8,"2,3-DIMETHYLHEPTANE",128.2578,722.159462,275.082847,43734.1607,0.631821543,140.65,0.869239492,1.09922012,1.03649138,1.23066353,0.790778367,2.384516104
1714,C9H20-E5,3-ETHYLHEPTANE,128.2578,722.423165,268.947086,43963.9944,0.539759455,143.2,0.868878723,1.09882271,0.902982796,1.23025616,0.790736044,2.444389063
1715,C5H14N2,"1,5-PENTANEDIAMINE",102.17964,874.165507,207.771784,51930.7336,2.35072451,178,1.8936898,1.81132897,0.118775242,3.60528022,1.045469835,3.075468844
1716,C9H23NO3SI,GAMMA-AMINOPROPYLTRIETHOXYSILANE,221.37206,943.11597,295.833323,55655.8744,1.47117638,219.9,0.900009165,0.810351976,0.018324216,0.973153412,1.11063981,4.106603453
1717,C7H12O2-D5,SEC-BUTYL-ACRYLATE,128.17108,886.708086,231.780558,45209.0799,0.710136203,131,1.00518125,0.863486012,1.13330533,0.744994609,1.164096738,2.458891705
1718,C8H14O3-D1,ISOBUTYRIC-ANHYDRIDE,ERROR,ERROR,ERROR,ERROR,ERROR,ERROR,ERROR,ERROR,ERROR,ERROR,ERROR,ERROR
1719,C5H4O3,METHYL-MALEIC-ANHYDRIDE,ERROR,ERROR,ERROR,ERROR,ERROR,ERROR,ERROR,ERROR,ERROR,ERROR,ERROR,ERROR
1720,C3H5NO,LACTONITRILE,ERROR,ERROR,ERROR,ERROR,ERROR,ERROR,ERROR,ERROR,ERROR,ERROR,ERROR,ERROR
1721,C7H14-4,"TRANS-1,2-DIMETHYLCYCLOPENTANE",98.18816,747.088349,190.714998,34553.7795,0.494774046,91.87,1.05502232,1.34463498,8.53278097,1.4677533,0.784616149,1.479997202
1722,C7H16O-E1,ISOHEPTANOL,116.20344,812.504107,266.523263,62447.0667,5.93639818,172,1.51465407,1.79479371,0.051428841,3.12851198,0.84391541,3.496606439
1723,C4CL4S,TETRACHLOROTHIOPHENE,ERROR,ERROR,ERROR,ERROR,ERROR,ERROR,ERROR,ERROR,ERROR,ERROR,ERROR,ERROR
1724,C9H10O3-D2,4-METHOXYPHENYLACETIC-ACID,166.1766,1046.54645,265.046617,89510.2603,22.0778675,2.91E+02,3.08387816,2.34708603,2.71308E-05,8.43717837,1.31391782,6.460005259
1725,C7H14O-D4,CIS-2-METHYLCYCLOHEXANOL,114.18756,931.86247,251.45389,59861.2191,17.3419675,165,1.760128,2.10303966,0.182352912,3.65737727,0.836944749,2.947901459
1726,C7H14O-D5,TRANS-2-METHYLCYCLOHEXANOL,114.18756,922.5651,250.449663,60207.0373,30.7575519,167,1.760128,2.10303966,0.157427419,3.65737727,0.836944749,3.011733786
1727,C24H42,N-OCTADECYLBENZENE,330.59748,851.200212,607.660608,109214.993,10.4128126,4.00E+02,0.478761203,0.546862688,6.688E-08,0.2269787,0.875468767,10.00573363
1728,C5H11NO,TERT-BUTYLFORMAMIDE,ERROR,ERROR,ERROR,ERROR,ERROR,ERROR,ERROR,ERROR,ERROR,ERROR,ERROR,ERROR
1729,C15H16-D1,"2,2-DIPHENYL-PROPANE",196.29204,1001.64385,330.458068,78468.2165,6.02497353,281.19,0.956146835,0.986608116,0.000254647,1.22705127,0.969125248,5.948479217
1730,C20H60O8SI9,EICOSAMETHYL-NONASILOXANE,681.4611,920.364082,911.583137,98204.613,4.20729117,3.33E+02,0.464468645,0.49192593,4.38003E-06,4600.15993,0.944184107,3.836785894
1731,C12H20,"1,3-DIMETHYLADAMANTANE",164.2908,898.572085,201.388836,48385.7706,3.82986891,203.285,0.941771813,1.16801836,0.104799644,1.42263271,0.806298809,3.343133532
1732,C14H20,DIAMANTANE,ERROR,ERROR,ERROR,ERROR,ERROR,ERROR,ERROR,ERROR,ERROR,ERROR,ERROR,ERROR
1733,C10H10MG,BIS(CYCLOPENTADIENYL)MAGNESIUM,ERROR,ERROR,ERROR,ERROR,ERROR,ERROR,ERROR,ERROR,ERROR,ERROR,ERROR,ERROR
1734,C18H22O2,DICUMYLPEROXIDE,ERROR,ERROR,ERROR,ERROR,ERROR,ERROR,ERROR,ERROR,ERROR,ERROR,ERROR,ERROR
1735,C9H12O2,CUMENE-HYDROPEROXIDE,ERROR,ERROR,ERROR,ERROR,ERROR,ERROR,ERROR,ERROR,ERROR,ERROR,ERROR,ERROR
1736,C20H28,1-N-DECYLNAPHTHALENE,268.44232,927.937928,450.646213,94855.434,15.4514643,3.79E+02,0.635439969,0.68628471,1.13382E-06,0.522852275,0.92591305,8.512717656
1737,C8H6O4-D1,ISOPHTHALIC-ACID,166.13324,1680.92686,264.468757,155626.823,492.375157,4.80E+02,11.5984214,11.9072481,2.77454E-10,44.7523841,0.974063974,11.43094105
1738,C3H7CLO2-N1,"2-CHLORO-1,3-PROPANEDIOL",ERROR,ERROR,ERROR,ERROR,ERROR,ERROR,ERROR,ERROR,ERROR,ERROR,ERROR,ERROR
1739,C10H20-D1,CIS-2-DECENE,140.2688,737.101419,280.719645,50991.8112,0.748660672,173.85,0.794736416,0.936404614,0.180669277,0.934543548,0.848710487,3.193116155
1740,C10H20-D2,TRANS-2-DECENE,140.2688,743.231903,286.585564,51062.576,0.748409612,172.85,0.794736416,0.936404614,0.183977185,0.934543548,0.848710487,3.185236492
1741,C12H24-D1,CIS-2-DODECENE,168.32256,751.460914,334.778542,60732.4697,1.19479203,217.85,0.720858199,0.853000533,0.016603588,0.790237979,0.845085286,4.262125911
1742,C12H24-D2,TRANS-2-DODECENE,168.32256,763.08155,340.025951,60725.5725,1.19386459,217.85,0.720858199,0.853000533,0.016606008,0.790237979,0.845085286,4.262062624
1743,C12H22O4-N3,"1,10-DECANEDICARBOXYLIC-ACID",230.30428,1063.00724,470.723289,138400.331,20.059854,3.85E+02,1.35240682,1.53124393,3.71616E-10,2.69063227,0.883207955,11.63423233
1744,C7H16S-D1,ETHYL-N-PENTYL-SULFIDE,132.27004,837.288459,241.208192,49885.8505,0.754027536,169.55,0.06596509,0.005375869,0.222729216,0.171641949,12.27059135,1.597184499
1745,C18H30-D1,HEXAETHYLBENZENE,246.4362,905.549697,508.113935,86629.0624,24.3326655,298,0.516934481,0.515660189,0.000117499,0.182631819,1.002471186,6.829889157
1746,C6H13NO,HEXANAMIDE,115.17536,924.359852,233.757,75670.14,4.8373492,256,1.07822277,1.03295388,0.000265407,1.05763651,1.043824696,6.014969252
1747,C8H12-D2,METHYLNORBORNENE,108.18328,867.774292,182.390965,36568.3933,0.766189765,117,1.05104131,1.22261014,3.52732028,1.32075273,0.859670042,1.868158041
1748,C19H40O,1-NONADECANOL,284.526,836.440914,607.923926,119813.226,48.3641102,3.62E+02,0.582598614,0.661099102,9.01722E-08,0.397859487,0.881257609,9.714600508
1749,C16H26-D1,PENTAETHYLBENZENE,218.38244,893.3989,496.530243,82238.0867,8.54579054,277,0.577134885,0.576748996,0.000287905,0.282250712,1.000669076,6.300239629
1750,C6H15N3,N-AMINOETHYL-PIPERAZINE,129.20532,979.347487,204.487223,60132.9271,12.0429061,220.05,1.20365994,0.963006297,0.014042251,1.04824081,1.249898307,4.264867801
1751,C6H10-E6,2-HEXYNE,82.1454,726.991951,186.991863,34649.6512,0.398016227,84.52,0.961322061,1.00026294,10.6731779,1.07651467,0.961069357,1.388936938
1752,C18H30-D2,"1,3,5-TRI-TERTBUTYLBENZENE",246.4362,911.665133,438.228794,67516.5782,5.08496629,256.65,0.604264122,0.716103834,0.002625202,0.538818698,0.843821934,5.153507018
1753,C10H22-D2,"2,4-DIMETHYLOCTANE",142.28468,722.738599,298.403827,46762.1768,0.849833225,155.9,0.823635584,1.03768473,0.470622192,1.14416168,0.793724298,2.734042085
1754,C3H2F6,"1,1,1,2,3,3-HEXAFLUOROPROPANE",ERROR,ERROR,ERROR,ERROR,ERROR,ERROR,ERROR,ERROR,ERROR,ERROR,ERROR,ERROR
1755,C7H14-D3,5-METHYL-1-HEXENE,98.18816,687.648196,207.710642,34379.36,0.316055063,85.31,0.909090029,1.02824675,10.3442274,1.05161941,0.884116608,1.424677153
1756,C12H18-D8,"1,2,3-TRIETHYLBENZENE",162.27492,889.203822,287.342646,58156.4492,1.96591824,217.55,0.752581206,0.756081998,0.018299969,0.634685504,0.995369825,4.262696432
1757,C2H3F3-D1,"1,1,2-TRIFLUOROETHANE",ERROR,ERROR,ERROR,ERROR,ERROR,ERROR,ERROR,ERROR,ERROR,ERROR,ERROR,ERROR
1758,CA,CALCIUM,ERROR,ERROR,ERROR,ERROR,ERROR,ERROR,ERROR,ERROR,ERROR,ERROR,ERROR,ERROR
1759,SI2H6,DISILANE,62.21864,634.738085,None,None,None,-14.15,0.00619366,1.04804061,366.833567,1.05586249,0.005909751,-0.118561859
1760,C10H22S-D1,ETHYL-N-OCTYL-SULFIDE,174.35068,828.851995,349.668111,63828.4531,1.45069883,232.393,0.096479081,0.013988416,0.012770637,0.131659715,6.897069733,3.369239521
1761,C5H12S-D3,2-PENTANETHIOL,104.21628,828.375793,190.422259,38397.7517,0.516710153,112,0.882804146,0.848097054,3.51886668,0.821030912,1.040923491,1.916819693
1762,C6H12O3,6-HYDROXYHEXANOIC-ACID,132.15948,980.710971,240.342816,87954.0154,27.9687879,2.84E+02,3.75286219,4.70260127,1.64968E-05,24.5354333,0.798039633,6.51428047
1763,C8H16-11,"CIS,CIS,TRANS-1,2,4-TRIMETHYLCYC",112.21504,758.625999,205.16069,37780.7506,0.518953664,116.73,0.998091014,1.26425343,3.25569582,1.41873652,0.789470679,1.886425031
1764,C10H20-2,ISOBUTYLCYCLOHEXANE,140.2688,791.497428,253.503676,47226.4631,1.43859373,171.3,0.888611946,1.11617901,0.286743382,1.26434321,0.796119563,2.937511928
1765,C12H26-N9,2-METHYLUNDECANE,ERROR,ERROR,ERROR,ERROR,ERROR,ERROR,ERROR,ERROR,ERROR,ERROR,ERROR,ERROR
1766,C13H28-N1,2-METHYLDODECANE,ERROR,ERROR,ERROR,ERROR,ERROR,ERROR,ERROR,ERROR,ERROR,ERROR,ERROR,ERROR
1767,C14H30-N1,2-METHYLTRIDECANE,ERROR,ERROR,ERROR,ERROR,ERROR,ERROR,ERROR,ERROR,ERROR,ERROR,ERROR,ERROR
1768,C11H24-N45,3-METHYLDECANE,156.31156,738.619545,313.314549,52399.7582,0.998777493,190.9,0.781177333,0.981198639,0.091950517,1.0543602,0.796145961,3.454350219
1769,C12H26-D1,3-METHYLUNDECANE,170.33844,747.565151,336.541318,56076.1352,1.26332809,211.2,0.742433181,0.930094613,0.033363286,0.965212732,0.798234041,3.909771726