Index,Solvent,cname,MW,RHO,CP,HV,MU,BP,GAMMA1,GAMMA2,VP,GAMMAS,S,alpha
1477,BBR3,BORON-TRIBROMIDE,ERROR,ERROR,ERROR,ERROR,ERROR,ERROR,ERROR,ERROR,ERROR,ERROR,ERROR,ERROR
1478,CLO3F,PERCHLORYL-FLUORIDE,ERROR,ERROR,ERROR,ERROR,ERROR,ERROR,ERROR,ERROR,ERROR,ERROR,ERROR,ERROR
1479,V,VANADIUM,ERROR,ERROR,ERROR,ERROR,ERROR,ERROR,ERROR,ERROR,ERROR,ERROR,ERROR,ERROR
1480,K,POTASSIUM,ERROR,ERROR,ERROR,ERROR,ERROR,ERROR,ERROR,ERROR,ERROR,ERROR,ERROR,ERROR
1481,C12H24O2-N2,ETHYL-CAPRATE,ERROR,ERROR,ERROR,ERROR,ERROR,ERROR,ERROR,ERROR,ERROR,ERROR,ERROR,ERROR
1482,C6H4O5-N2,"2,5-DICARBOXYFURAN",ERROR,ERROR,ERROR,ERROR,ERROR,ERROR,ERROR,ERROR,ERROR,ERROR,ERROR,ERROR
1483,C4H8N8O8,TETRAMETHYLENETETRANITRAMINE,ERROR,ERROR,ERROR,ERROR,ERROR,ERROR,ERROR,ERROR,ERROR,ERROR,ERROR,ERROR
1484,C8H8-D1,"1,3,5,7-CYCLOOCTATETRAENE",104.15152,915.590342,155.345314,41832.6287,1.2491877,142.55,1.41971922,1.4173165,1.03313671,1.67930938,1.00169526,2.361314796
1485,C3CL2F6,"1,3-DICHLOROHEXAFLUOROPROPANE",220.9288,1557.30787,216.07375,26906.2114,0.288049501,36.1,1.18736105,1.29216855,67.7138496,3.45647564,0.918890225,0.191144622
1486,C14H10O4,BENZOYL-PEROXIDE,ERROR,ERROR,ERROR,ERROR,ERROR,ERROR,ERROR,ERROR,ERROR,ERROR,ERROR,ERROR
1487,C5H6O4-E1,CITRACONIC-ACID,130.10024,1443.04965,259.261053,105630.357,12.1117668,3.34E+02,6.07442225,7.34110521,6.0027E-07,19.9528271,0.827453371,8.236547023
1488,C5H6O4-E2,ITACONIC-ACID,130.10024,1431.15375,246.700863,103606.286,12.0149199,3.28E+02,5.23487991,5.88055093,2.17557E-06,18.0036576,0.890202291,7.625620955
1489,AG,SILVER,ERROR,ERROR,ERROR,ERROR,ERROR,ERROR,ERROR,ERROR,ERROR,ERROR,ERROR,ERROR
1490,C9H8O4,ACETYLSALICYLIC-ACID,180.16012,1293.05419,262.414824,88722.5967,438.023263,2.91E+02,4.57784876,3.47025818,5.43352E-05,9.71149301,1.319166622,6.267131225
1491,C10H10O4-D2,DIMETHYL-TEREPHTHALATE,194.187,1212.26399,212.727732,67256.9266,6.71315448,286.05,1.77996691,1.38822046,0.00105286,1.50461105,1.282193255,5.391799999
1492,C25H20,TETRAPHENYLMETHANE,320.4338,1341.41863,412.917453,109463.654,105.051394,4.70E+02,0.942368176,0.889630463,7.3166E-08,1.56537305,1.059280471,9.339419092
1493,C7H14O2-D11,ETHYL-TRIMETHYL-ACETATE,130.18696,852.630651,243.699306,41469.016,0.981593327,118.55,0.919124089,0.848309516,2.26208393,0.721457275,1.083477282,2.164971467
1494,NANO3,SODIUM-NITRATE,ERROR,ERROR,ERROR,ERROR,ERROR,ERROR,ERROR,ERROR,ERROR,ERROR,ERROR,ERROR
1495,C6H12O6-N5,MANNOSE,ERROR,ERROR,ERROR,ERROR,ERROR,ERROR,ERROR,ERROR,ERROR,ERROR,ERROR,ERROR
1496,C12H20O,2-CYCLOHEXYL-CYCLOHEXANONE,180.2902,988.300028,412.977047,87104.0561,1.53164461,264,0.847504114,0.806469775,0.000363669,0.709057163,1.050881434,5.944336533
1497,C12H18O,2-CYCLOHEXENYL-CYCLOHEXANONE,178.27432,1000.06586,267.411928,67263.7355,5.0995682,278.15,0.858545039,0.792332964,0.001167577,0.671475816,1.083565973,5.453728192
1498,C9H8O4-N2,MONOMETHYL-TEREPHTHALATE,180.16012,1429.36828,254.854141,98140.1052,19.724539,3.20E+02,3.87016405,3.37004042,1.79542E-05,6.99961119,1.148402858,6.877531491
1499,C20H18,"1,1,2-TRIPHENYLETHANE",258.36292,1143.41701,355.030948,85710.7321,25.2591309,3.49E+02,0.986845987,0.961280895,1.11035E-05,1.48613046,1.02659482,7.214468425
1500,C26H22,"1,1,2,2-TETRAPHENYLETHANE",334.46068,1117.65212,444.670008,92687.7784,561.600644,3.60E+02,0.883999869,0.842753909,1.18056E-05,1.38842708,1.048941879,7.160224602
1501,C20H16,TRIPHENYLETHYLENE,256.34704,1070.50404,353.792556,91866.7321,25.2637066,3.96E+02,0.98673024,0.930890074,1.10243E-06,1.32322697,1.059985779,8.25404757
1502,C26H20,TETRAPHENYLETHYLENE,332.4448,1339.07132,446.497953,113897.288,140.95091,4.87E+02,0.847580758,0.798644087,7.80426E-09,1.10348301,1.061274693,10.41639251
1503,C2N2,CYANOGEN,ERROR,ERROR,ERROR,ERROR,ERROR,ERROR,ERROR,ERROR,ERROR,ERROR,ERROR,ERROR
1504,C3H6N6,MELAMINE,ERROR,ERROR,ERROR,ERROR,ERROR,ERROR,ERROR,ERROR,ERROR,ERROR,ERROR,ERROR
1505,N2O5,NITROGEN-PENTOXIDE,ERROR,ERROR,ERROR,ERROR,ERROR,ERROR,ERROR,ERROR,ERROR,ERROR,ERROR,ERROR
1506,GACL3,GALLIUM-TRICHLORIDE,ERROR,ERROR,ERROR,ERROR,ERROR,ERROR,ERROR,ERROR,ERROR,ERROR,ERROR,ERROR
1507,C12H12N2-D2,HYDRAZOBENZENE,ERROR,ERROR,ERROR,ERROR,ERROR,ERROR,ERROR,ERROR,ERROR,ERROR,ERROR,ERROR
1508,C9H10O2-D3,METHYL-PARA-TOLUATE,150.1772,994.922083,214.777184,62812.9764,2.07481466,217,1.25737513,0.999746904,0.012825606,1.07178111,1.257693447,4.310842535
1509,CACL2,CALCIUM-CHLORIDE,ERROR,ERROR,ERROR,ERROR,ERROR,ERROR,ERROR,ERROR,ERROR,ERROR,ERROR,ERROR
1510,NACL,SODIUM-CHLORIDE,ERROR,ERROR,ERROR,ERROR,ERROR,ERROR,ERROR,ERROR,ERROR,ERROR,ERROR,ERROR
1511,CACO3,CALCIUM-CARBONATE-CALCITE,ERROR,ERROR,ERROR,ERROR,ERROR,ERROR,ERROR,ERROR,ERROR,ERROR,ERROR,ERROR
1512,CAF2,CALCIUM-FLUORIDE,ERROR,ERROR,ERROR,ERROR,ERROR,ERROR,ERROR,ERROR,ERROR,ERROR,ERROR,ERROR
1513,CASO4,CALCIUM-SULFATE,ERROR,ERROR,ERROR,ERROR,ERROR,ERROR,ERROR,ERROR,ERROR,ERROR,ERROR,ERROR
1514,CA(OH)2,CALCIUM-HYDROXIDE,ERROR,ERROR,ERROR,ERROR,ERROR,ERROR,ERROR,ERROR,ERROR,ERROR,ERROR,ERROR
1515,CUCL2,COPPER-DICHLORIDE,ERROR,ERROR,ERROR,ERROR,ERROR,ERROR,ERROR,ERROR,ERROR,ERROR,ERROR,ERROR
1516,CUSO4,COPPER-SULFATE,ERROR,ERROR,ERROR,ERROR,ERROR,ERROR,ERROR,ERROR,ERROR,ERROR,ERROR,ERROR
1517,MGSO4,MAGNESIUM-SULFATE,ERROR,ERROR,ERROR,ERROR,ERROR,ERROR,ERROR,ERROR,ERROR,ERROR,ERROR,ERROR
1518,KBR,POTASSIUM-BROMIDE,ERROR,ERROR,ERROR,ERROR,ERROR,ERROR,ERROR,ERROR,ERROR,ERROR,ERROR,ERROR
1519,K2CO3,POTASSIUM-CARBONATE,ERROR,ERROR,ERROR,ERROR,ERROR,ERROR,ERROR,ERROR,ERROR,ERROR,ERROR,ERROR
1520,LII,LITHIUM-IODIDE,ERROR,ERROR,ERROR,ERROR,ERROR,ERROR,ERROR,ERROR,ERROR,ERROR,ERROR,ERROR
1521,NISO4,NICKEL-SULFATE,ERROR,ERROR,ERROR,ERROR,ERROR,ERROR,ERROR,ERROR,ERROR,ERROR,ERROR,ERROR
1522,C2H6HG,DIMETHYLMERCURY,ERROR,ERROR,ERROR,ERROR,ERROR,ERROR,ERROR,ERROR,ERROR,ERROR,ERROR,ERROR
1523,C9H10O3,ETHYL-VANILLIN,166.1766,1194.6985,308.295252,101411.183,33.5163226,2.94E+02,3.51384683,2.31162583,5.1361E-06,19.1908082,1.52007595,6.819327677
1524,C3H4CL2-D1,"CIS-1,3-DICHLOROPROPENE",ERROR,ERROR,ERROR,ERROR,ERROR,ERROR,ERROR,ERROR,ERROR,ERROR,ERROR,ERROR
1525,C3H4CL2-D2,"TRANS-1,3-DICHLOROPROPENE",ERROR,ERROR,ERROR,ERROR,ERROR,ERROR,ERROR,ERROR,ERROR,ERROR,ERROR,ERROR
1526,N2F4,TETRAFLUOROHYDRAZINE,ERROR,ERROR,ERROR,ERROR,ERROR,ERROR,ERROR,ERROR,ERROR,ERROR,ERROR,ERROR
1527,C5CL6,HEXACHLOROCYCLOPENTADIENE,272.7712,1704.06462,218.018128,57569.8497,6.87478655,239,0.815368903,0.770289647,0.012125278,0.643480915,1.058522474,4.443563156
1528,C19H32O2,METHYL-LINOLENATE,292.46188,895.765066,508.613917,94874.8538,3.39391837,3.47E+02,0.513249331,0.50129306,2.22922E-06,0.15319137,1.023850861,8.615841675
1529,C8H8O4,VANILLIC-ACID,168.14912,1269.35785,247.908452,98497.7379,100.235807,3.30E+02,8.03634392,5.81806304,7.72219E-06,60.7214354,1.38127481,6.542832309
1530,C3H6CL4SI,TRICHLORO-3-CHLOROPROPYL-SILANE,ERROR,ERROR,ERROR,ERROR,ERROR,ERROR,ERROR,ERROR,ERROR,ERROR,ERROR,ERROR
1531,C10H12N2O5,"4,6-DINITRO-O-SEC-BUTYLPHENOL",240.21576,1286.66423,356.639738,103032.046,35.8327978,3.32E+02,1.17435853,0.359815233,9.09508E-07,0.154631048,3.263782137,8.857112767
1532,C8H8O2-D4,2-HYDROXYACETOPHENONE,136.15032,1122.18835,187.878545,51195.1306,2.79136505,221.55,3.96131899,3.07547003,0.035059475,16.8342802,1.288036935,3.166048004
1533,C10H19O6PS2,MALATHION,ERROR,ERROR,ERROR,ERROR,ERROR,ERROR,ERROR,ERROR,ERROR,ERROR,ERROR,ERROR
1534,C12H9NS,PHENOTHIAZINE,ERROR,ERROR,ERROR,ERROR,ERROR,ERROR,ERROR,ERROR,ERROR,ERROR,ERROR,ERROR
1535,C10H16N2O8,ETHYLENEDIAMINETETRAACETIC-ACID,ERROR,ERROR,ERROR,ERROR,ERROR,ERROR,ERROR,ERROR,ERROR,ERROR,ERROR,ERROR
1536,C10H12-D1,O-ETHYLSTYRENE,132.20528,902.352855,221.673671,51292.1888,1.14257238,187.29,0.975035057,0.9418707,0.11308071,0.975984192,1.035211157,3.380296437
1537,C5H12S2,ETHYL-PROPYL-DISULFIDE,136.28228,970.113214,200.498003,47204.3603,1.26E+00,173.7,0.010312789,8.55621E-05,0.244592756,0.037358395,120.529934,0.420585891
1538,C13H18O2,IBUPROFEN,206.28472,994.180561,314.453269,82606.5666,85.3236783,3.07E+02,1.00886762,0.931425578,2.91835E-05,1.0255032,1.083143564,6.942209831
1539,C6H14S2-N1,"DISULFIDE,-TERT-BUTYL-ETHYL",ERROR,ERROR,ERROR,ERROR,ERROR,ERROR,ERROR,ERROR,ERROR,ERROR,ERROR,ERROR
1540,C7H5NS2,2-MERCAPTOBENZOTHIAZOLE,ERROR,ERROR,ERROR,ERROR,ERROR,ERROR,ERROR,ERROR,ERROR,ERROR,ERROR,ERROR
1541,C8H6O3,4-CARBOXYBENZALDEHYDE,150.13384,1727.06044,224.557148,117679.777,69.6377209,4.29E+02,7.40472705,4.56510502,2.16987E-08,19.3321032,1.622027756,9.485873446
1542,C7H8S,BENZYL-MERCAPTAN,124.20652,1051.99041,242.517303,56595.3527,0.929773913,198.88,1.48641397,1.19175069,0.056524531,1.34598621,1.247252452,3.644044294
1543,C4H6O2-D6,CYCLOPROPANE-CARBOXYLIC-ACID,86.09044,1084.44429,150.001511,48982.6551,3.08706246,183,4.84801234,6.27240687,0.039650099,4.28419188,0.772911012,4.016457489
1544,C2H5NO-D3,ACETALDOXIME,ERROR,ERROR,ERROR,ERROR,ERROR,ERROR,ERROR,ERROR,ERROR,ERROR,ERROR,ERROR
1545,NA2CO3,SODIUM-CARBONATE,ERROR,ERROR,ERROR,ERROR,ERROR,ERROR,ERROR,ERROR,ERROR,ERROR,ERROR,ERROR
1546,NACN,SODIUM-CYANIDE,ERROR,ERROR,ERROR,ERROR,ERROR,ERROR,ERROR,ERROR,ERROR,ERROR,ERROR,ERROR
1547,NAF,SODIUM-FLUORIDE,ERROR,ERROR,ERROR,ERROR,ERROR,ERROR,ERROR,ERROR,ERROR,ERROR,ERROR,ERROR
1548,NAOH,SODIUM-HYDROXIDE,ERROR,ERROR,ERROR,ERROR,ERROR,ERROR,ERROR,ERROR,ERROR,ERROR,ERROR,ERROR
1549,NANO2,SODIUM-NITRITE,ERROR,ERROR,ERROR,ERROR,ERROR,ERROR,ERROR,ERROR,ERROR,ERROR,ERROR,ERROR
1550,NA2SO4,SODIUM-SULFATE,ERROR,ERROR,ERROR,ERROR,ERROR,ERROR,ERROR,ERROR,ERROR,ERROR,ERROR,ERROR
1551,NA2S,SODIUM-SULFIDE,ERROR,ERROR,ERROR,ERROR,ERROR,ERROR,ERROR,ERROR,ERROR,ERROR,ERROR,ERROR
1552,FECL2,FERROUS-CHLORIDE,ERROR,ERROR,ERROR,ERROR,ERROR,ERROR,ERROR,ERROR,ERROR,ERROR,ERROR,ERROR
1553,FECL3,FERRIC-CHLORIDE,ERROR,ERROR,ERROR,ERROR,ERROR,ERROR,ERROR,ERROR,ERROR,ERROR,ERROR,ERROR
1554,NH4CL,AMMONIUM-CHLORIDE,ERROR,ERROR,ERROR,ERROR,ERROR,ERROR,ERROR,ERROR,ERROR,ERROR,ERROR,ERROR
1555,NH4NO3,AMMONIUM-NITRATE,ERROR,ERROR,ERROR,ERROR,ERROR,ERROR,ERROR,ERROR,ERROR,ERROR,ERROR,ERROR
1556,(NH4)2SO4,AMMONIUM-SULFATE,ERROR,ERROR,ERROR,ERROR,ERROR,ERROR,ERROR,ERROR,ERROR,ERROR,ERROR,ERROR
1557,KI,POTASSIUM-IODIDE,ERROR,ERROR,ERROR,ERROR,ERROR,ERROR,ERROR,ERROR,ERROR,ERROR,ERROR,ERROR
1558,KC2H3O2,POTASSIUM-ACETATE,ERROR,ERROR,ERROR,ERROR,ERROR,ERROR,ERROR,ERROR,ERROR,ERROR,ERROR,ERROR
1559,C2H3NAO2,SODIUM-ACETATE,ERROR,ERROR,ERROR,ERROR,ERROR,ERROR,ERROR,ERROR,ERROR,ERROR,ERROR,ERROR
1560,C2H3O2LI,LITHIUM-ACETATE,ERROR,ERROR,ERROR,ERROR,ERROR,ERROR,ERROR,ERROR,ERROR,ERROR,ERROR,ERROR
1561,NACLO3,SODIUM-CHLORATE,ERROR,ERROR,ERROR,ERROR,ERROR,ERROR,ERROR,ERROR,ERROR,ERROR,ERROR,ERROR
1562,HGSO4,MERCURY-SULFATE,ERROR,ERROR,ERROR,ERROR,ERROR,ERROR,ERROR,ERROR,ERROR,ERROR,ERROR,ERROR
1563,ZNSO4,ZINC-SULFATE,ERROR,ERROR,ERROR,ERROR,ERROR,ERROR,ERROR,ERROR,ERROR,ERROR,ERROR,ERROR
1564,KCLO3,POTASSIUM-CHLORATE,ERROR,ERROR,ERROR,ERROR,ERROR,ERROR,ERROR,ERROR,ERROR,ERROR,ERROR,ERROR
1565,NAH2PO4,MONOSODIUM-PHOSPHATE,ERROR,ERROR,ERROR,ERROR,ERROR,ERROR,ERROR,ERROR,ERROR,ERROR,ERROR,ERROR
1566,NH4CLO4,AMMONIUM-PERCHLORATE,ERROR,ERROR,ERROR,ERROR,ERROR,ERROR,ERROR,ERROR,ERROR,ERROR,ERROR,ERROR
1567,MG(NO3)2,MAGNESIUM-NITRATE,ERROR,ERROR,ERROR,ERROR,ERROR,ERROR,ERROR,ERROR,ERROR,ERROR,ERROR,ERROR
1568,CUCL,CUPROUS-CHLORIDE,ERROR,ERROR,ERROR,ERROR,ERROR,ERROR,ERROR,ERROR,ERROR,ERROR,ERROR,ERROR
1569,NA2S2O3,SODIUM-THIOSULFATE,ERROR,ERROR,ERROR,ERROR,ERROR,ERROR,ERROR,ERROR,ERROR,ERROR,ERROR,ERROR
1570,C12H11N3-E1,P-AMINOAZOBENZENE,ERROR,ERROR,ERROR,ERROR,ERROR,ERROR,ERROR,ERROR,ERROR,ERROR,ERROR,ERROR
1571,C7H6N2O4-E4,"3,4-DINITROTOLUENE",182.13572,1338.64298,229.902959,69576.4722,11.3275921,336.85,0.934329526,0.177694012,0.000173347,0.10167424,5.2580811,6.452682066
1572,C4H4O2,DIKETENE,84.07456,1049.88592,113.613535,42716.7939,0.86475581,126.05,6.54757374,4.22128662,1.42834167,5.97399901,1.551084854,2.143484049
1573,C8H14-N19,1-ETHYL-1-CYCLOHEXENE,ERROR,ERROR,ERROR,ERROR,ERROR,ERROR,ERROR,ERROR,ERROR,ERROR,ERROR,ERROR
1574,C9H10-E3,O-METHYL-STYRENE,118.1784,907.810518,207.276705,49086.3766,0.880099395,169.81,1.05488849,0.970329282,0.246693212,1.02125385,1.087144859,3.034764691
1575,C9H10-E2,M-METHYL-STYRENE,118.1784,907.586307,194.487315,48054.1685,0.799490503,171.6,1.05488849,0.970329282,0.253043552,1.02125385,1.087144859,3.023726616
1576,C9H18-D4,CIS-2-NONENE,126.24192,735.484722,243.801032,44404.5871,0.583729158,150.75,0.835486472,0.981749411,0.653093036,1.00398363,0.851018053,2.624435425
1577,C9H20-7,"2,2,3,4-TETRAMETHYLPENTANE",128.2578,735.1618,258.741032,40283.2279,0.743185754,133.03,0.863413951,1.09321966,1.69020554,1.22697881,0.789789996,2.17106731
1578,C9H20-9,"2,3,3,4-TETRAMETHYLPENTANE",128.2578,751.07816,267.317355,41518.1239,0.762750429,141.55,0.863413951,1.09321966,1.18397806,1.22697881,0.789789996,2.325663176
1579,C9H20-6,"2,2,3,3-TETRAMETHYLPENTANE",128.2578,752.959904,258.044956,41172.8275,0.757908719,140.29,0.859424178,1.08938304,1.26829321,1.23024641,0.788909086,2.293105296
1580,C9H20-8,"2,2,4,4-TETRAMETHYLPENTANE",128.2578,715.581827,265.762544,38351.7718,0.719930042,122.29,0.859424178,1.08938304,2.67129697,1.23024641,0.788909086,1.969602792
1581,C27H46O,BETA-CHOLESTEROL,386.66164,1123.20542,650.662596,104233.57,12.0254157,4.98E+02,0.49323642,0.543569628,7.33982E-09,0.195377259,0.907402464,11.02783247
1582,C22H42O2,ERUCIC-ACID,ERROR,ERROR,ERROR,ERROR,ERROR,ERROR,ERROR,ERROR,ERROR,ERROR,ERROR,ERROR
1583,C8H9NO2,ACETAMINOPHEN,ERROR,ERROR,ERROR,ERROR,ERROR,ERROR,ERROR,ERROR,ERROR,ERROR,ERROR,ERROR
1584,C2H2CLF3,"2-CHLORO-1,1,1-TRIFLUOROETHANE",118.48578,1322.08118,None,None,None,6.1,3.1654048,3.41739382,198.555676,10.5837538,0.926262809,-0.339690545
1585,C20H36O2-N1,ETHYL-LINOLEATE,ERROR,ERROR,ERROR,ERROR,ERROR,ERROR,ERROR,ERROR,ERROR,ERROR,ERROR,ERROR
1586,SIO2,SILICON-DIOXIDE,ERROR,ERROR,ERROR,ERROR,ERROR,ERROR,ERROR,ERROR,ERROR,ERROR,ERROR,ERROR
1587,C7H6N2O4-E5,"3,5-DINITROTOLUENE",182.13572,1361.80705,194.517242,67364.1241,11.0860946,314.85,0.934329526,0.177694012,0.000267709,0.10167424,5.2580811,6.263935533
1588,C7H6N2O4-E2,"2,5-DINITROTOLUENE",182.13572,1367.31744,235.45598,67904.9026,11.3325619,316.85,0.934329526,0.177694012,0.00037735,0.10167424,5.2580811,6.114853973
1589,C3H7N-D2,CYCLOPROPYLAMINE,57.09532,813.40314,124.692168,30680.4886,0.379808583,50,1.70691256,1.78059955,38.7869491,1.67311165,0.958616754,0.887492176
1590,C8H18SO4,DI-N-BUTYL-SULFATE,ERROR,ERROR,ERROR,ERROR,ERROR,ERROR,ERROR,ERROR,ERROR,ERROR,ERROR,ERROR
1591,C6H14S-D3,ETHYL-T-BUTYL-SULFIDE,118.24316,816.330598,224.973535,39443.1944,0.684951828,120.41,0.056070692,0.003651014,2.59890203,0.183736154,15.3575668,0.332565431
1592,C8H18S2,DI-TERT-BUTYL-DISULFIDE,ERROR,ERROR,ERROR,ERROR,ERROR,ERROR,ERROR,ERROR,ERROR,ERROR,ERROR,ERROR
1593,C17H34-D1,1-HEPTADECENE,238.45696,779.308718,479.041923,81653.3805,3.26318691,3.00E+02,0.572383111,0.672166033,6.92411E-05,0.436918153,0.851550187,6.795848769
1594,C4H10SO3,DIETHYLSULFITE,ERROR,ERROR,ERROR,ERROR,ERROR,ERROR,ERROR,ERROR,ERROR,ERROR,ERROR,ERROR
1595,C19H38-D1,1-NONADECENE,266.51072,785.614606,538.214129,90898.7939,4.44148175,3.29E+02,0.529840685,0.624199223,5.8818E-06,0.346373341,0.848832657,7.935404643
1596,C3H3CL,PROPARGYL-CHLORIDE,ERROR,ERROR,ERROR,ERROR,ERROR,ERROR,ERROR,ERROR,ERROR,ERROR,ERROR,ERROR
1597,C2HCL2F3-D3,"2,2-DICHLORO-1,1,2-TRIFLUOROETHA",ERROR,ERROR,ERROR,ERROR,ERROR,ERROR,ERROR,ERROR,ERROR,ERROR,ERROR,ERROR
1598,C7H5N5O8,TETRYL,ERROR,ERROR,ERROR,ERROR,ERROR,ERROR,ERROR,ERROR,ERROR,ERROR,ERROR,ERROR
1599,CLH3SI,MONOCHLOROSILANE,ERROR,ERROR,ERROR,ERROR,ERROR,ERROR,ERROR,ERROR,ERROR,ERROR,ERROR,ERROR
1600,C6H10-E4,"CIS,TRANS-2,4-HEXADIENE",82.1454,719.681654,167.423451,34026.3067,0.243728499,83.5,0.961151096,1.00742792,11.0716821,1.0115693,0.954064382,1.403141195
1601,C13H26-1,N-OCTYLCYCLOPENTANE,182.34944,813.591824,334.985041,63172.7872,2.10790371,243.75,0.754687582,0.940618877,0.006483812,0.989925812,0.802330891,4.615117071
1602,C5H8N4O12,PENTAERYTHRITOL-TETRANITRATE,ERROR,ERROR,ERROR,ERROR,ERROR,ERROR,ERROR,ERROR,ERROR,ERROR,ERROR,ERROR
1603,C14H28-1,N-NONYLCYCLOPENTANE,ERROR,ERROR,ERROR,ERROR,ERROR,ERROR,ERROR,ERROR,ERROR,ERROR,ERROR,ERROR
1604,C7H5NO3S,SACCHARIN,ERROR,ERROR,ERROR,ERROR,ERROR,ERROR,ERROR,ERROR,ERROR,ERROR,ERROR,ERROR
1605,C12H11N3-E2,"1,3-DIPHENYLTRIAZENE",ERROR,ERROR,ERROR,ERROR,ERROR,ERROR,ERROR,ERROR,ERROR,ERROR,ERROR,ERROR
1606,C8H14-D3,"2,5-DIMETHYL-2,4-HEXADIENE",110.19916,758.948153,235.703746,43917.2699,0.826124099,135.26,0.868122108,0.979446106,1.09706102,0.994444503,0.886339843,2.402305668
1607,AS,ARSENIC,ERROR,ERROR,ERROR,ERROR,ERROR,ERROR,ERROR,ERROR,ERROR,ERROR,ERROR,ERROR
1608,C8H10O4,ETHYLENE-GLYCOL-DIACRYLATE,170.165,1089.86038,267.551577,60596.8651,1.44789169,229.85,1.402092,1.00348387,0.008772103,0.999047197,1.397224252,4.507957146
1609,C2HCLF2,"2-CHLORO-1,1-DIFLUOROETHYLENE",ERROR,ERROR,ERROR,ERROR,ERROR,ERROR,ERROR,ERROR,ERROR,ERROR,ERROR,ERROR
1610,C2BRF3,BROMOTRIFLUOROETHYLENE,ERROR,ERROR,ERROR,ERROR,ERROR,ERROR,ERROR,ERROR,ERROR,ERROR,ERROR,ERROR
1611,COF2,CARBONYL-FLUORIDE,ERROR,ERROR,ERROR,ERROR,ERROR,ERROR,ERROR,ERROR,ERROR,ERROR,ERROR,ERROR
1612,C2CL5F,PENTACHLOROFLUOROETHANE,220.2839,1757.847,212.080922,44529.3678,2.64504991,137.9,1.08712965,1.00820289,1.36807754,1.04006425,1.0782846,2.299513516
1613,F3P,PHOSPHORUS-TRIFLUORIDE,ERROR,ERROR,ERROR,ERROR,ERROR,ERROR,ERROR,ERROR,ERROR,ERROR,ERROR,ERROR
1614,C12H10S2,DIPHENYL-DISULFIDE,ERROR,ERROR,ERROR,ERROR,ERROR,ERROR,ERROR,ERROR,ERROR,ERROR,ERROR,ERROR
1615,CH5SICL,METHYL-CHLOROSILANE,ERROR,ERROR,ERROR,ERROR,ERROR,ERROR,ERROR,ERROR,ERROR,ERROR,ERROR,ERROR
1616,C2H2O,KETENE,ERROR,ERROR,ERROR,ERROR,ERROR,ERROR,ERROR,ERROR,ERROR,ERROR,ERROR,ERROR
1617,C10H22S,N-DECYL-MERCAPTAN,174.35068,840.566904,331.981614,64301.649,1.54649078,239.2,0.679854234,0.67949136,0.006088449,0.487018302,1.000534038,4.809268416
1618,C2H8SI,DIMETHYL-SILANE,60.17102,579.298583,None,None,None,-19.6,1.13873433,2.43426509,422.562917,4.35885158,0.467793888,-0.429759132
1619,CH6SI,METHYL-SILANE,46.14414,497.38297,None,None,None,-56.9,0.692930799,2.81018632,1536.78696,3.63812318,0.246578241,-0.849619491
1620,C3H10SI,TRIMETHYL-SILANE,74.1979,616.117203,None,None,None,6.7,1.18660025,1.96338798,187.003963,3.78055016,0.604363611,-0.107263227
1621,C4H5NO2-D1,SUCCINIMIDE,ERROR,ERROR,ERROR,ERROR,ERROR,ERROR,ERROR,ERROR,ERROR,ERROR,ERROR,ERROR
1622,C6H10-D3,4-METHYLCYCLOPENTENE,82.1454,763.439183,145.266189,31292.5219,0.30713975,65.67,1.04487594,1.18650111,22.1949367,1.21708125,0.880636294,1.091831126
1623,PF5,PHOSPHORUS-PENTAFLUORIDE,ERROR,ERROR,ERROR,ERROR,ERROR,ERROR,ERROR,ERROR,ERROR,ERROR,ERROR,ERROR
1624,C7H14-E2,"CIS-1,3-DIMETHYLCYCLOPENTANE",98.18816,740.512763,176.986933,34044.6343,0.494971313,90.77,1.05502232,1.34463498,8.81694968,1.4677533,0.784616149,1.465769438
1625,C10H22-3,"2,2,3,3-TETRAMETHYLHEXANE",142.28468,760.826568,286.875952,44369.186,0.892123556,160.31,0.813686352,1.02750909,0.53686251,1.1387102,0.791901853,2.674645844
1626,C10H22-4,"2,2,5,5-TETRAMETHYLHEXANE",142.28468,715.663313,287.839559,42884.6019,0.870892921,137.46,0.813686352,1.02750909,1.18051592,1.1387102,0.791901853,2.332437074
1627,C4H10CL2SI,DICHLORODIETHYLSILANE,ERROR,ERROR,ERROR,ERROR,ERROR,ERROR,ERROR,ERROR,ERROR,ERROR,ERROR,ERROR
1628,C21H42O2-N1,METHYL-ARACHIDATE,326.56328,858.98162,639.975089,111681.605,8.15759293,3.75E+02,0.457827295,0.499364754,1.37865E-07,0.144674402,0.916819402,9.847707507
1629,C6H10O-N13,3-METHYLCYCLOPENTANONE,98.1448,910.514779,195.905504,45379.3381,1.2000872,144,1.3542892,1.18083526,0.754215995,1.21344253,1.146890888,2.559810822
1630,C3H6N6O6,TRIMETHYLENETRINITRAMINE,ERROR,ERROR,ERROR,ERROR,ERROR,ERROR,ERROR,ERROR,ERROR,ERROR,ERROR,ERROR
1631,C15H18,1-N-PENTYLNAPHTHALENE,198.30792,962.94146,326.048527,76168.0195,7.20299028,306,0.862007767,0.889551229,0.000160576,0.991369495,0.969036677,6.196390167
1632,C7H14O2-D8,N-HEXYL-FORMATE,130.18696,875.927515,241.069354,49429.8402,0.947936635,155.5,1.07460906,0.992702722,0.355886732,1.06128541,1.082508425,2.868811682
1633,C12H10SICL2,DIPHENYLDICHLOROSILANE,ERROR,ERROR,ERROR,ERROR,ERROR,ERROR,ERROR,ERROR,ERROR,ERROR,ERROR,ERROR